<?xml version="1.0"?>
<VTKFile type="UnstructuredGrid"  version="0.1"  >
<UnstructuredGrid>
<Piece  NumberOfPoints="81" NumberOfCells="128">
<Points>
<DataArray  type="Float64"  NumberOfComponents="3"  format="ascii">0 0 0  0.275 0 0  0.55 0 0  0.8250000000000001 0 0  1.1 0 0  1.375 0 0  1.65 0 0  1.925 0 0  2.2 0 0  0 0.05125 0  0.275 0.05125 0  0.55 0.05125 0  0.8250000000000001 0.05125 0  1.1 0.05125 0  1.375 0.05125 0  1.65 0.05125 0  1.925 0.05125 0  2.2 0.05125 0  0 0.1025 0  0.275 0.1025 0  0.55 0.1025 0  0.8250000000000001 0.1025 0  1.1 0.1025 0  1.375 0.1025 0  1.65 0.1025 0  1.925 0.1025 0  2.2 0.1025 0  0 0.15375 0  0.275 0.15375 0  0.55 0.15375 0  0.8250000000000001 0.15375 0  1.1 0.15375 0  1.375 0.15375 0  1.65 0.15375 0  1.925 0.15375 0  2.2 0.15375 0  0 0.205 0  0.275 0.205 0  0.55 0.205 0  0.8250000000000001 0.205 0  1.1 0.205 0  1.375 0.205 0  1.65 0.205 0  1.925 0.205 0  2.2 0.205 0  0 0.25625 0  0.275 0.25625 0  0.55 0.25625 0  0.8250000000000001 0.25625 0  1.1 0.25625 0  1.375 0.25625 0  1.65 0.25625 0  1.925 0.25625 0  2.2 0.25625 0  0 0.3075 0  0.275 0.3075 0  0.55 0.3075 0  0.8250000000000001 0.3075 0  1.1 0.3075 0  1.375 0.3075 0  1.65 0.3075 0  1.925 0.3075 0  2.2 0.3075 0  0 0.35875 0  0.275 0.35875 0  0.55 0.35875 0  0.8250000000000001 0.35875 0  1.1 0.35875 0  1.375 0.35875 0  1.65 0.35875 0  1.925 0.35875 0  2.2 0.35875 0  0 0.41 0  0.275 0.41 0  0.55 0.41 0  0.8250000000000001 0.41 0  1.1 0.41 0  1.375 0.41 0  1.65 0.41 0  1.925 0.41 0  2.2 0.41 0  </DataArray>
</Points>
<Cells>
<DataArray  type="UInt32"  Name="connectivity"  format="ascii">0 1 9  1 9 10  1 2 11  1 10 11  2 3 11  3 11 12  3 4 13  3 12 13  4 5 13  5 13 14  5 6 15  5 14 15  6 7 15  7 15 16  7 8 17  7 16 17  9 10 19  9 18 19  10 11 19  11 19 20  11 12 21  11 20 21  12 13 21  13 21 22  13 14 23  13 22 23  14 15 23  15 23 24  15 16 25  15 24 25  16 17 25  17 25 26  18 19 27  19 27 28  19 20 29  19 28 29  20 21 29  21 29 30  21 22 31  21 30 31  22 23 31  23 31 32  23 24 33  23 32 33  24 25 33  25 33 34  25 26 35  25 34 35  27 28 37  27 36 37  28 29 37  29 37 38  29 30 39  29 38 39  30 31 39  31 39 40  31 32 41  31 40 41  32 33 41  33 41 42  33 34 43  33 42 43  34 35 43  35 43 44  36 37 45  37 45 46  37 38 47  37 46 47  38 39 47  39 47 48  39 40 49  39 48 49  40 41 49  41 49 50  41 42 51  41 50 51  42 43 51  43 51 52  43 44 53  43 52 53  45 46 55  45 54 55  46 47 55  47 55 56  47 48 57  47 56 57  48 49 57  49 57 58  49 50 59  49 58 59  50 51 59  51 59 60  51 52 61  51 60 61  52 53 61  53 61 62  54 55 63  55 63 64  55 56 65  55 64 65  56 57 65  57 65 66  57 58 67  57 66 67  58 59 67  59 67 68  59 60 69  59 68 69  60 61 69  61 69 70  61 62 71  61 70 71  63 64 73  63 72 73  64 65 73  65 73 74  65 66 75  65 74 75  66 67 75  67 75 76  67 68 77  67 76 77  68 69 77  69 77 78  69 70 79  69 78 79  70 71 79  71 79 80  </DataArray>
<DataArray  type="UInt32"  Name="offsets"  format="ascii">3 6 9 12 15 18 21 24 27 30 33 36 39 42 45 48 51 54 57 60 63 66 69 72 75 78 81 84 87 90 93 96 99 102 105 108 111 114 117 120 123 126 129 132 135 138 141 144 147 150 153 156 159 162 165 168 171 174 177 180 183 186 189 192 195 198 201 204 207 210 213 216 219 222 225 228 231 234 237 240 243 246 249 252 255 258 261 264 267 270 273 276 279 282 285 288 291 294 297 300 303 306 309 312 315 318 321 324 327 330 333 336 339 342 345 348 351 354 357 360 363 366 369 372 375 378 381 384 </DataArray>
<DataArray  type="UInt8"  Name="types"  format="ascii">5 5 5 5 5 5 5 5 5 5 5 5 5 5 5 5 5 5 5 5 5 5 5 5 5 5 5 5 5 5 5 5 5 5 5 5 5 5 5 5 5 5 5 5 5 5 5 5 5 5 5 5 5 5 5 5 5 5 5 5 5 5 5 5 5 5 5 5 5 5 5 5 5 5 5 5 5 5 5 5 5 5 5 5 5 5 5 5 5 5 5 5 5 5 5 5 5 5 5 5 5 5 5 5 5 5 5 5 5 5 5 5 5 5 5 5 5 5 5 5 5 5 5 5 5 5 5 5 </DataArray>
</Cells>
<PointData  Scalars="f_22"> 
<DataArray  type="Float64"  Name="f_22"  format="ascii">1.5913725682080984e-01  1.5033510457350155e-01  1.8547881953161752e-01  1.9582957065665776e-01  1.9078974831381115e-01  1.1561296992272750e-01  8.3590516230425432e-02  5.6667540407097032e-02  0.0000000000000000e+00  1.5791801374528197e-01  1.5068199100707164e-01  1.7952253115065225e-01  1.9619710836708742e-01  1.8742669601075443e-01  1.1584389208129910e-01  8.0766967047199933e-02  5.6935005116891750e-02  0.0000000000000000e+00  1.5747098613414209e-01  1.5249055963484873e-01  1.7297966449153879e-01  1.9754549458360599e-01  1.8404832191284801e-01  1.2177243001816554e-01  7.4690115215472877e-02  6.3267857717388437e-02  0.0000000000000000e+00  1.5896601325378182e-01  1.5431091203764366e-01  1.7497965118077705e-01  1.9633319708845220e-01  1.8229743551585281e-01  1.2695786994134026e-01  7.1171472568599889e-02  6.8288516056755261e-02  0.0000000000000000e+00  1.6026644069344789e-01  1.5454684195681295e-01  1.7615984170114890e-01  1.9678900503083349e-01  1.8118708376959794e-01  1.2650218826017431e-01  6.8226936971838278e-02  6.8745024111777034e-02  0.0000000000000000e+00  1.5903884952335381e-01  1.5436213466788434e-01  1.7496765162507233e-01  1.9635091781522759e-01  1.8227756838702056e-01  1.2690608894257144e-01  7.1135712260104067e-02  6.8365497351656937e-02  0.0000000000000000e+00  1.5759070552360716e-01  1.5249078834568847e-01  1.7300691034761886e-01  1.9750316299461673e-01  1.8400593690660205e-01  1.2176169112390803e-01  7.4560059876894277e-02  6.3390064228871223e-02  0.0000000000000000e+00  1.5822936869111842e-01  1.5060444153475694e-01  1.7954940268881744e-01  1.9610361665318707e-01  1.8743504023479854e-01  1.1577888226573124e-01  8.0688660197316908e-02  5.6978862881653158e-02  0.0000000000000000e+00  1.5961241211298152e-01  1.5020987482992357e-01  1.8556931869845908e-01  1.9570564956699674e-01  1.9084887508260370e-01  1.1553253466241431e-01  8.3546128814800169e-02  5.6720928383135014e-02  0.0000000000000000e+00  </DataArray> 
</PointData> 
</Piece>
</UnstructuredGrid>
</VTKFile>