<?xml version="1.0"?>
<VTKFile type="UnstructuredGrid"  version="0.1"  >
<UnstructuredGrid>
<Piece  NumberOfPoints="81" NumberOfCells="128">
<Points>
<DataArray  type="Float64"  NumberOfComponents="3"  format="ascii">0 0 0  0.275 0 0  0.55 0 0  0.8250000000000001 0 0  1.1 0 0  1.375 0 0  1.65 0 0  1.925 0 0  2.2 0 0  0 0.05125 0  0.275 0.05125 0  0.55 0.05125 0  0.8250000000000001 0.05125 0  1.1 0.05125 0  1.375 0.05125 0  1.65 0.05125 0  1.925 0.05125 0  2.2 0.05125 0  0 0.1025 0  0.275 0.1025 0  0.55 0.1025 0  0.8250000000000001 0.1025 0  1.1 0.1025 0  1.375 0.1025 0  1.65 0.1025 0  1.925 0.1025 0  2.2 0.1025 0  0 0.15375 0  0.275 0.15375 0  0.55 0.15375 0  0.8250000000000001 0.15375 0  1.1 0.15375 0  1.375 0.15375 0  1.65 0.15375 0  1.925 0.15375 0  2.2 0.15375 0  0 0.205 0  0.275 0.205 0  0.55 0.205 0  0.8250000000000001 0.205 0  1.1 0.205 0  1.375 0.205 0  1.65 0.205 0  1.925 0.205 0  2.2 0.205 0  0 0.25625 0  0.275 0.25625 0  0.55 0.25625 0  0.8250000000000001 0.25625 0  1.1 0.25625 0  1.375 0.25625 0  1.65 0.25625 0  1.925 0.25625 0  2.2 0.25625 0  0 0.3075 0  0.275 0.3075 0  0.55 0.3075 0  0.8250000000000001 0.3075 0  1.1 0.3075 0  1.375 0.3075 0  1.65 0.3075 0  1.925 0.3075 0  2.2 0.3075 0  0 0.35875 0  0.275 0.35875 0  0.55 0.35875 0  0.8250000000000001 0.35875 0  1.1 0.35875 0  1.375 0.35875 0  1.65 0.35875 0  1.925 0.35875 0  2.2 0.35875 0  0 0.41 0  0.275 0.41 0  0.55 0.41 0  0.8250000000000001 0.41 0  1.1 0.41 0  1.375 0.41 0  1.65 0.41 0  1.925 0.41 0  2.2 0.41 0  </DataArray>
</Points>
<Cells>
<DataArray  type="UInt32"  Name="connectivity"  format="ascii">0 1 9  1 9 10  1 2 11  1 10 11  2 3 11  3 11 12  3 4 13  3 12 13  4 5 13  5 13 14  5 6 15  5 14 15  6 7 15  7 15 16  7 8 17  7 16 17  9 10 19  9 18 19  10 11 19  11 19 20  11 12 21  11 20 21  12 13 21  13 21 22  13 14 23  13 22 23  14 15 23  15 23 24  15 16 25  15 24 25  16 17 25  17 25 26  18 19 27  19 27 28  19 20 29  19 28 29  20 21 29  21 29 30  21 22 31  21 30 31  22 23 31  23 31 32  23 24 33  23 32 33  24 25 33  25 33 34  25 26 35  25 34 35  27 28 37  27 36 37  28 29 37  29 37 38  29 30 39  29 38 39  30 31 39  31 39 40  31 32 41  31 40 41  32 33 41  33 41 42  33 34 43  33 42 43  34 35 43  35 43 44  36 37 45  37 45 46  37 38 47  37 46 47  38 39 47  39 47 48  39 40 49  39 48 49  40 41 49  41 49 50  41 42 51  41 50 51  42 43 51  43 51 52  43 44 53  43 52 53  45 46 55  45 54 55  46 47 55  47 55 56  47 48 57  47 56 57  48 49 57  49 57 58  49 50 59  49 58 59  50 51 59  51 59 60  51 52 61  51 60 61  52 53 61  53 61 62  54 55 63  55 63 64  55 56 65  55 64 65  56 57 65  57 65 66  57 58 67  57 66 67  58 59 67  59 67 68  59 60 69  59 68 69  60 61 69  61 69 70  61 62 71  61 70 71  63 64 73  63 72 73  64 65 73  65 73 74  65 66 75  65 74 75  66 67 75  67 75 76  67 68 77  67 76 77  68 69 77  69 77 78  69 70 79  69 78 79  70 71 79  71 79 80  </DataArray>
<DataArray  type="UInt32"  Name="offsets"  format="ascii">3 6 9 12 15 18 21 24 27 30 33 36 39 42 45 48 51 54 57 60 63 66 69 72 75 78 81 84 87 90 93 96 99 102 105 108 111 114 117 120 123 126 129 132 135 138 141 144 147 150 153 156 159 162 165 168 171 174 177 180 183 186 189 192 195 198 201 204 207 210 213 216 219 222 225 228 231 234 237 240 243 246 249 252 255 258 261 264 267 270 273 276 279 282 285 288 291 294 297 300 303 306 309 312 315 318 321 324 327 330 333 336 339 342 345 348 351 354 357 360 363 366 369 372 375 378 381 384 </DataArray>
<DataArray  type="UInt8"  Name="types"  format="ascii">5 5 5 5 5 5 5 5 5 5 5 5 5 5 5 5 5 5 5 5 5 5 5 5 5 5 5 5 5 5 5 5 5 5 5 5 5 5 5 5 5 5 5 5 5 5 5 5 5 5 5 5 5 5 5 5 5 5 5 5 5 5 5 5 5 5 5 5 5 5 5 5 5 5 5 5 5 5 5 5 5 5 5 5 5 5 5 5 5 5 5 5 5 5 5 5 5 5 5 5 5 5 5 5 5 5 5 5 5 5 5 5 5 5 5 5 5 5 5 5 5 5 5 5 5 5 5 5 </DataArray>
</Cells>
<PointData  Scalars="f_22"> 
<DataArray  type="Float64"  Name="f_22"  format="ascii">3.1606282784994877e-01  5.8970246094088230e-01  3.7026348221546568e-01  3.7491419801894876e-01  2.7395208327917020e-01  2.3252034097168853e-01  1.3796846018543421e-01  9.5166069503070314e-02  0.0000000000000000e+00  3.1572599848458721e-01  5.7942311388557355e-01  3.8174557216411698e-01  3.7269397285881151e-01  2.7672140762239555e-01  2.3183910788188486e-01  1.4062932388091828e-01  9.4198724943903495e-02  0.0000000000000000e+00  3.1418215777322328e-01  5.4062877092381889e-01  3.9853274337088346e-01  3.6524005670829435e-01  2.8237489086723511e-01  2.2726677321419381e-01  1.4538807928079489e-01  8.9461448116166548e-02  0.0000000000000000e+00  3.4291362638483758e-01  5.2475417525134282e-01  4.0036788942952051e-01  3.6314825846792254e-01  2.8243685454930534e-01  2.2614163935130296e-01  1.4538130030121360e-01  8.7869034607229016e-02  0.0000000000000000e+00  3.6270756719399383e-01  5.2220541428213030e-01  4.0902167980814486e-01  3.6143866536911545e-01  2.8374776346483377e-01  2.2588405932027528e-01  1.4606141534172187e-01  8.7769513144087347e-02  0.0000000000000000e+00  3.4298381027488983e-01  5.2474783201369446e-01  4.0039206024946711e-01  3.6317237527627194e-01  2.8242829519399976e-01  2.2606096558360775e-01  1.4538477598212429e-01  8.7918371121270961e-02  0.0000000000000000e+00  3.1428161412676714e-01  5.4061155815791229e-01  3.9864458894543725e-01  3.6517576798056645e-01  2.8238272740886544e-01  2.2721324187048000e-01  1.4532161661842186e-01  8.9576363447960813e-02  0.0000000000000000e+00  3.1593028488329683e-01  5.7939466597148548e-01  3.8181005203531126e-01  3.7262280131395320e-01  2.7673178202744969e-01  2.3175512865154513e-01  1.4062188776816126e-01  9.4235451821066893e-02  0.0000000000000000e+00  3.1646905628392863e-01  5.8961788413032667e-01  3.7036054828315823e-01  3.7481196372564135e-01  2.7399147427813264e-01  2.3242023216734656e-01  1.3800210709885583e-01  9.5200357265509281e-02  0.0000000000000000e+00  </DataArray> 
</PointData> 
</Piece>
</UnstructuredGrid>
</VTKFile>