<?xml version="1.0"?>
<VTKFile type="UnstructuredGrid"  version="0.1"  >
<UnstructuredGrid>
<Piece  NumberOfPoints="81" NumberOfCells="128">
<Points>
<DataArray  type="Float64"  NumberOfComponents="3"  format="ascii">0 0 0  0.275 0 0  0.55 0 0  0.8250000000000001 0 0  1.1 0 0  1.375 0 0  1.65 0 0  1.925 0 0  2.2 0 0  0 0.05125 0  0.275 0.05125 0  0.55 0.05125 0  0.8250000000000001 0.05125 0  1.1 0.05125 0  1.375 0.05125 0  1.65 0.05125 0  1.925 0.05125 0  2.2 0.05125 0  0 0.1025 0  0.275 0.1025 0  0.55 0.1025 0  0.8250000000000001 0.1025 0  1.1 0.1025 0  1.375 0.1025 0  1.65 0.1025 0  1.925 0.1025 0  2.2 0.1025 0  0 0.15375 0  0.275 0.15375 0  0.55 0.15375 0  0.8250000000000001 0.15375 0  1.1 0.15375 0  1.375 0.15375 0  1.65 0.15375 0  1.925 0.15375 0  2.2 0.15375 0  0 0.205 0  0.275 0.205 0  0.55 0.205 0  0.8250000000000001 0.205 0  1.1 0.205 0  1.375 0.205 0  1.65 0.205 0  1.925 0.205 0  2.2 0.205 0  0 0.25625 0  0.275 0.25625 0  0.55 0.25625 0  0.8250000000000001 0.25625 0  1.1 0.25625 0  1.375 0.25625 0  1.65 0.25625 0  1.925 0.25625 0  2.2 0.25625 0  0 0.3075 0  0.275 0.3075 0  0.55 0.3075 0  0.8250000000000001 0.3075 0  1.1 0.3075 0  1.375 0.3075 0  1.65 0.3075 0  1.925 0.3075 0  2.2 0.3075 0  0 0.35875 0  0.275 0.35875 0  0.55 0.35875 0  0.8250000000000001 0.35875 0  1.1 0.35875 0  1.375 0.35875 0  1.65 0.35875 0  1.925 0.35875 0  2.2 0.35875 0  0 0.41 0  0.275 0.41 0  0.55 0.41 0  0.8250000000000001 0.41 0  1.1 0.41 0  1.375 0.41 0  1.65 0.41 0  1.925 0.41 0  2.2 0.41 0  </DataArray>
</Points>
<Cells>
<DataArray  type="UInt32"  Name="connectivity"  format="ascii">0 1 9  1 9 10  1 2 11  1 10 11  2 3 11  3 11 12  3 4 13  3 12 13  4 5 13  5 13 14  5 6 15  5 14 15  6 7 15  7 15 16  7 8 17  7 16 17  9 10 19  9 18 19  10 11 19  11 19 20  11 12 21  11 20 21  12 13 21  13 21 22  13 14 23  13 22 23  14 15 23  15 23 24  15 16 25  15 24 25  16 17 25  17 25 26  18 19 27  19 27 28  19 20 29  19 28 29  20 21 29  21 29 30  21 22 31  21 30 31  22 23 31  23 31 32  23 24 33  23 32 33  24 25 33  25 33 34  25 26 35  25 34 35  27 28 37  27 36 37  28 29 37  29 37 38  29 30 39  29 38 39  30 31 39  31 39 40  31 32 41  31 40 41  32 33 41  33 41 42  33 34 43  33 42 43  34 35 43  35 43 44  36 37 45  37 45 46  37 38 47  37 46 47  38 39 47  39 47 48  39 40 49  39 48 49  40 41 49  41 49 50  41 42 51  41 50 51  42 43 51  43 51 52  43 44 53  43 52 53  45 46 55  45 54 55  46 47 55  47 55 56  47 48 57  47 56 57  48 49 57  49 57 58  49 50 59  49 58 59  50 51 59  51 59 60  51 52 61  51 60 61  52 53 61  53 61 62  54 55 63  55 63 64  55 56 65  55 64 65  56 57 65  57 65 66  57 58 67  57 66 67  58 59 67  59 67 68  59 60 69  59 68 69  60 61 69  61 69 70  61 62 71  61 70 71  63 64 73  63 72 73  64 65 73  65 73 74  65 66 75  65 74 75  66 67 75  67 75 76  67 68 77  67 76 77  68 69 77  69 77 78  69 70 79  69 78 79  70 71 79  71 79 80  </DataArray>
<DataArray  type="UInt32"  Name="offsets"  format="ascii">3 6 9 12 15 18 21 24 27 30 33 36 39 42 45 48 51 54 57 60 63 66 69 72 75 78 81 84 87 90 93 96 99 102 105 108 111 114 117 120 123 126 129 132 135 138 141 144 147 150 153 156 159 162 165 168 171 174 177 180 183 186 189 192 195 198 201 204 207 210 213 216 219 222 225 228 231 234 237 240 243 246 249 252 255 258 261 264 267 270 273 276 279 282 285 288 291 294 297 300 303 306 309 312 315 318 321 324 327 330 333 336 339 342 345 348 351 354 357 360 363 366 369 372 375 378 381 384 </DataArray>
<DataArray  type="UInt8"  Name="types"  format="ascii">5 5 5 5 5 5 5 5 5 5 5 5 5 5 5 5 5 5 5 5 5 5 5 5 5 5 5 5 5 5 5 5 5 5 5 5 5 5 5 5 5 5 5 5 5 5 5 5 5 5 5 5 5 5 5 5 5 5 5 5 5 5 5 5 5 5 5 5 5 5 5 5 5 5 5 5 5 5 5 5 5 5 5 5 5 5 5 5 5 5 5 5 5 5 5 5 5 5 5 5 5 5 5 5 5 5 5 5 5 5 5 5 5 5 5 5 5 5 5 5 5 5 5 5 5 5 5 5 </DataArray>
</Cells>
<PointData  Vectors="f_16"> 
<DataArray  type="Float64"  Name="f_16"  NumberOfComponents="3" format="ascii">2.1526487040575459e-05 -4.7951818612696511e-08 0.0000000000000000e+00  -6.7461858914417819e-07 -8.5723061470296001e-08 0.0000000000000000e+00  1.8578295026984633e-06 -1.2935357569582838e-08 0.0000000000000000e+00  -9.2135110400724317e-06 -7.1574333418535569e-08 0.0000000000000000e+00  -4.7187361954249856e-06 1.4779129940656189e-07 0.0000000000000000e+00  -5.5295974208083921e-06 -9.6093787756180572e-08 0.0000000000000000e+00  -7.9831342206586688e-06 -1.4335689044462014e-07 0.0000000000000000e+00  -7.0854643130643396e-06 1.2932469608600591e-07 0.0000000000000000e+00  -3.8672206824548002e-06 -2.0080657170561962e-08 0.0000000000000000e+00  6.5624745869319412e-01 -9.9272632693348179e-09 0.0000000000000000e+00  6.5749868792762123e-01 2.1360941346234264e-03 0.0000000000000000e+00  7.0087152028731159e-01 -1.3468815783253553e-02 0.0000000000000000e+00  8.1195348595394068e-01 -2.8970039049779440e-02 0.0000000000000000e+00  9.7047182941934707e-01 2.7074272357409251e-03 0.0000000000000000e+00  9.5909770550550499e-01 4.9421460913203590e-03 0.0000000000000000e+00  9.5983812826730641e-01 -6.6771146233243987e-03 0.0000000000000000e+00  9.4509014622243448e-01 5.7164164394553586e-03 0.0000000000000000e+00  9.7075077824702949e-01 -1.1091066859445414e-02 0.0000000000000000e+00  1.1249843059282798e+00 -5.4599733985918349e-08 0.0000000000000000e+00  1.1226052885098294e+00 3.8517124985323584e-03 0.0000000000000000e+00  1.1119820169355217e+00 -1.8053690735827421e-02 0.0000000000000000e+00  1.0960308414087723e+00 -4.8457911055141183e-02 0.0000000000000000e+00  1.1565698276037795e+00 -1.2798876479030172e-02 0.0000000000000000e+00  1.1632152871170236e+00 2.9254993929104557e-03 0.0000000000000000e+00  1.1572202729644192e+00 -2.6510191462214118e-03 0.0000000000000000e+00  1.1738771013225473e+00 8.7332829354582770e-03 0.0000000000000000e+00  1.1669141665921583e+00 -6.4201167503576762e-03 0.0000000000000000e+00  1.4062401812555072e+00 -9.8281111167350841e-09 0.0000000000000000e+00  1.3996644887837899e+00 -4.5656876657676753e-04 0.0000000000000000e+00  1.3878369158147370e+00 -1.2421328785752165e-02 0.0000000000000000e+00  1.3120323581976283e+00 -2.0889060547633266e-02 0.0000000000000000e+00  1.1922952133911475e+00 -1.7099202476926020e-02 0.0000000000000000e+00  1.1749211905360197e+00 1.0184267587408183e-04 0.0000000000000000e+00  1.1705877152056081e+00 -6.0074916302306524e-04 0.0000000000000000e+00  1.1918417650636306e+00 2.4577722310996459e-03 0.0000000000000000e+00  1.1772664441712579e+00 -4.1917898000545526e-03 0.0000000000000000e+00  1.4999819748127250e+00 -6.6836177485583684e-08 0.0000000000000000e+00  1.4883396537604203e+00 -1.4186960838398905e-04 0.0000000000000000e+00  1.4716640424027501e+00 -1.0979235482274251e-04 0.0000000000000000e+00  1.4072011080346722e+00 -2.4439447137475586e-05 0.0000000000000000e+00  1.2057532017122081e+00 -7.0263088900761989e-06 0.0000000000000000e+00  1.1740051567786507e+00 2.0540498852468631e-05 0.0000000000000000e+00  1.1706626278892187e+00 2.1149646682603687e-04 0.0000000000000000e+00  1.1951162958528745e+00 1.3918441644475174e-04 0.0000000000000000e+00  1.1768620508089076e+00 3.7267208981681285e-05 0.0000000000000000e+00  1.4062371243334399e+00 -3.2890297908419216e-08 0.0000000000000000e+00  1.3996435883849074e+00 3.5331016925993063e-04 0.0000000000000000e+00  1.3870676242116617e+00 1.2292388969846479e-02 0.0000000000000000e+00  1.3124252961109777e+00 2.0811187976482223e-02 0.0000000000000000e+00  1.1919159220932298e+00 1.7057436508293281e-02 0.0000000000000000e+00  1.1730787079765010e+00 -8.1155655452979861e-05 0.0000000000000000e+00  1.1718114456568094e+00 9.4494966543870256e-04 0.0000000000000000e+00  1.1916854475782661e+00 -2.3878305423049966e-03 0.0000000000000000e+00  1.1770212771923196e+00 4.0465384099235549e-03 0.0000000000000000e+00  1.1249858953905776e+00 3.2458375273278262e-08 0.0000000000000000e+00  1.1224527603946848e+00 -4.3086057811113883e-03 0.0000000000000000e+00  1.1131918356973363e+00 1.8015638643719155e-02 0.0000000000000000e+00  1.0948693891014298e+00 4.8424936248519637e-02 0.0000000000000000e+00  1.1561995879528759e+00 1.2766961462092590e-02 0.0000000000000000e+00  1.1636314181047989e+00 -2.9190138950671838e-03 0.0000000000000000e+00  1.1554576974406185e+00 2.8866249811479480e-03 0.0000000000000000e+00  1.1748847759428984e+00 -8.5815993997061905e-03 0.0000000000000000e+00  1.1662970907178325e+00 6.5584954129038449e-03 0.0000000000000000e+00  6.5624205134337277e-01 1.8414051670469626e-08 0.0000000000000000e+00  6.5620768510310623e-01 -2.2592430709246392e-03 0.0000000000000000e+00  6.9959602300162393e-01 1.3476485764596624e-02 0.0000000000000000e+00  8.1097969080358490e-01 2.8955025653530135e-02 0.0000000000000000e+00  9.6988243394106899e-01 -2.6954154367329116e-03 0.0000000000000000e+00  9.5754164133113262e-01 -4.9597817117789343e-03 0.0000000000000000e+00  9.6007147034791185e-01 6.8385439330500711e-03 0.0000000000000000e+00  9.4295746104986500e-01 -5.6894569354894904e-03 0.0000000000000000e+00  9.7143831318289797e-01 1.1326718329428030e-02 0.0000000000000000e+00  -6.6081065342124067e-06 -8.1405213828228646e-09 0.0000000000000000e+00  -6.6621572344478822e-06 -6.2820550902906026e-09 0.0000000000000000e+00  -4.0351476469263872e-06 -1.8632147107337575e-08 0.0000000000000000e+00  -6.3073943884134939e-06 9.3947362300045861e-08 0.0000000000000000e+00  -3.8782761721375922e-06 -1.7884618981225156e-07 0.0000000000000000e+00  -7.8386417176929257e-06 -2.7249042282569359e-08 0.0000000000000000e+00  -9.1674568692112272e-06 5.9210197405870725e-08 0.0000000000000000e+00  1.4748451772770976e-06 -1.0322169847945289e-07 0.0000000000000000e+00  -1.0821438956598567e-05 8.1184492580470219e-09 0.0000000000000000e+00  </DataArray> 
</PointData> 
</Piece>
</UnstructuredGrid>
</VTKFile>