<?xml version="1.0"?>
<VTKFile type="UnstructuredGrid"  version="0.1"  >
<UnstructuredGrid>
<Piece  NumberOfPoints="81" NumberOfCells="128">
<Points>
<DataArray  type="Float64"  NumberOfComponents="3"  format="ascii">0 0 0  0.275 0 0  0.55 0 0  0.8250000000000001 0 0  1.1 0 0  1.375 0 0  1.65 0 0  1.925 0 0  2.2 0 0  0 0.05125 0  0.275 0.05125 0  0.55 0.05125 0  0.8250000000000001 0.05125 0  1.1 0.05125 0  1.375 0.05125 0  1.65 0.05125 0  1.925 0.05125 0  2.2 0.05125 0  0 0.1025 0  0.275 0.1025 0  0.55 0.1025 0  0.8250000000000001 0.1025 0  1.1 0.1025 0  1.375 0.1025 0  1.65 0.1025 0  1.925 0.1025 0  2.2 0.1025 0  0 0.15375 0  0.275 0.15375 0  0.55 0.15375 0  0.8250000000000001 0.15375 0  1.1 0.15375 0  1.375 0.15375 0  1.65 0.15375 0  1.925 0.15375 0  2.2 0.15375 0  0 0.205 0  0.275 0.205 0  0.55 0.205 0  0.8250000000000001 0.205 0  1.1 0.205 0  1.375 0.205 0  1.65 0.205 0  1.925 0.205 0  2.2 0.205 0  0 0.25625 0  0.275 0.25625 0  0.55 0.25625 0  0.8250000000000001 0.25625 0  1.1 0.25625 0  1.375 0.25625 0  1.65 0.25625 0  1.925 0.25625 0  2.2 0.25625 0  0 0.3075 0  0.275 0.3075 0  0.55 0.3075 0  0.8250000000000001 0.3075 0  1.1 0.3075 0  1.375 0.3075 0  1.65 0.3075 0  1.925 0.3075 0  2.2 0.3075 0  0 0.35875 0  0.275 0.35875 0  0.55 0.35875 0  0.8250000000000001 0.35875 0  1.1 0.35875 0  1.375 0.35875 0  1.65 0.35875 0  1.925 0.35875 0  2.2 0.35875 0  0 0.41 0  0.275 0.41 0  0.55 0.41 0  0.8250000000000001 0.41 0  1.1 0.41 0  1.375 0.41 0  1.65 0.41 0  1.925 0.41 0  2.2 0.41 0  </DataArray>
</Points>
<Cells>
<DataArray  type="UInt32"  Name="connectivity"  format="ascii">0 1 9  1 9 10  1 2 11  1 10 11  2 3 11  3 11 12  3 4 13  3 12 13  4 5 13  5 13 14  5 6 15  5 14 15  6 7 15  7 15 16  7 8 17  7 16 17  9 10 19  9 18 19  10 11 19  11 19 20  11 12 21  11 20 21  12 13 21  13 21 22  13 14 23  13 22 23  14 15 23  15 23 24  15 16 25  15 24 25  16 17 25  17 25 26  18 19 27  19 27 28  19 20 29  19 28 29  20 21 29  21 29 30  21 22 31  21 30 31  22 23 31  23 31 32  23 24 33  23 32 33  24 25 33  25 33 34  25 26 35  25 34 35  27 28 37  27 36 37  28 29 37  29 37 38  29 30 39  29 38 39  30 31 39  31 39 40  31 32 41  31 40 41  32 33 41  33 41 42  33 34 43  33 42 43  34 35 43  35 43 44  36 37 45  37 45 46  37 38 47  37 46 47  38 39 47  39 47 48  39 40 49  39 48 49  40 41 49  41 49 50  41 42 51  41 50 51  42 43 51  43 51 52  43 44 53  43 52 53  45 46 55  45 54 55  46 47 55  47 55 56  47 48 57  47 56 57  48 49 57  49 57 58  49 50 59  49 58 59  50 51 59  51 59 60  51 52 61  51 60 61  52 53 61  53 61 62  54 55 63  55 63 64  55 56 65  55 64 65  56 57 65  57 65 66  57 58 67  57 66 67  58 59 67  59 67 68  59 60 69  59 68 69  60 61 69  61 69 70  61 62 71  61 70 71  63 64 73  63 72 73  64 65 73  65 73 74  65 66 75  65 74 75  66 67 75  67 75 76  67 68 77  67 76 77  68 69 77  69 77 78  69 70 79  69 78 79  70 71 79  71 79 80  </DataArray>
<DataArray  type="UInt32"  Name="offsets"  format="ascii">3 6 9 12 15 18 21 24 27 30 33 36 39 42 45 48 51 54 57 60 63 66 69 72 75 78 81 84 87 90 93 96 99 102 105 108 111 114 117 120 123 126 129 132 135 138 141 144 147 150 153 156 159 162 165 168 171 174 177 180 183 186 189 192 195 198 201 204 207 210 213 216 219 222 225 228 231 234 237 240 243 246 249 252 255 258 261 264 267 270 273 276 279 282 285 288 291 294 297 300 303 306 309 312 315 318 321 324 327 330 333 336 339 342 345 348 351 354 357 360 363 366 369 372 375 378 381 384 </DataArray>
<DataArray  type="UInt8"  Name="types"  format="ascii">5 5 5 5 5 5 5 5 5 5 5 5 5 5 5 5 5 5 5 5 5 5 5 5 5 5 5 5 5 5 5 5 5 5 5 5 5 5 5 5 5 5 5 5 5 5 5 5 5 5 5 5 5 5 5 5 5 5 5 5 5 5 5 5 5 5 5 5 5 5 5 5 5 5 5 5 5 5 5 5 5 5 5 5 5 5 5 5 5 5 5 5 5 5 5 5 5 5 5 5 5 5 5 5 5 5 5 5 5 5 5 5 5 5 5 5 5 5 5 5 5 5 5 5 5 5 5 5 </DataArray>
</Cells>
<PointData  Vectors="f_16"> 
<DataArray  type="Float64"  Name="f_16"  NumberOfComponents="3" format="ascii">2.0515675291410402e-05 -3.2118615969304157e-09 0.0000000000000000e+00  -1.2145280467151517e-06 -7.9987704771268090e-09 0.0000000000000000e+00  1.2063901204051856e-06 -1.8167632685430773e-08 0.0000000000000000e+00  -8.1616321248634721e-06 2.3870873468973511e-08 0.0000000000000000e+00  -3.0110612056851273e-06 1.4362842619287750e-08 0.0000000000000000e+00  -4.9259672651963533e-06 1.3438239053191122e-08 0.0000000000000000e+00  -5.9725135832075940e-06 4.9169250224930733e-08 0.0000000000000000e+00  -6.7049935108796511e-06 4.9453059739332207e-08 0.0000000000000000e+00  -3.1897893192668394e-06 3.3342059710863776e-08 0.0000000000000000e+00  6.5624701008858610e-01 1.4152217764823711e-08 0.0000000000000000e+00  6.5763593947929544e-01 -2.4660283282698490e-04 0.0000000000000000e+00  6.5852524434187387e-01 3.1378455614069958e-04 0.0000000000000000e+00  6.5933765168437863e-01 -4.7478188888657301e-05 0.0000000000000000e+00  6.6380847113293373e-01 -1.6341611196269575e-03 0.0000000000000000e+00  6.9673888175961185e-01 -5.7760344480159258e-03 0.0000000000000000e+00  7.5660065591189973e-01 -7.5269807765474738e-03 0.0000000000000000e+00  8.1287517785879748e-01 -5.9553414754494631e-03 0.0000000000000000e+00  8.2623725752629762e-01 1.8039447162033681e-03 0.0000000000000000e+00  1.1249841408133290e+00 7.7100180316162360e-09 0.0000000000000000e+00  1.1251607337319571e+00 -5.6518493628744844e-04 0.0000000000000000e+00  1.1228804145175644e+00 6.5759306508573166e-04 0.0000000000000000e+00  1.1242279610016295e+00 -5.3997594900713833e-04 0.0000000000000000e+00  1.1261703409352646e+00 -2.7863790410958870e-03 0.0000000000000000e+00  1.1267654707843411e+00 -1.0723840940912490e-02 0.0000000000000000e+00  1.1244904993809193e+00 -1.5276689362059854e-02 0.0000000000000000e+00  1.1457555527451899e+00 -1.7600553321228483e-02 0.0000000000000000e+00  1.1842423658789476e+00 4.4359693658087057e-04 0.0000000000000000e+00  1.4062396511776394e+00 6.5800706948023624e-11 0.0000000000000000e+00  1.4053538850096245e+00 5.0131864109430248e-04 0.0000000000000000e+00  1.4037317426619689e+00 4.7457939498224156e-04 0.0000000000000000e+00  1.4038166940517380e+00 -1.5229923796616126e-03 0.0000000000000000e+00  1.4083418231414009e+00 -1.2139348789969302e-03 0.0000000000000000e+00  1.3854593239939190e+00 -6.1544518397222822e-03 0.0000000000000000e+00  1.3369930140051780e+00 -1.1786897691217262e-02 0.0000000000000000e+00  1.2875766927816781e+00 -1.4411134209121745e-02 0.0000000000000000e+00  1.2617532698795979e+00 -3.0520853926306124e-03 0.0000000000000000e+00  1.4999818400723168e+00 -2.8374772849521820e-10 0.0000000000000000e+00  1.5005057671124344e+00 -1.4996010463508565e-04 0.0000000000000000e+00  1.4952859007638881e+00 -1.5378266266017834e-04 0.0000000000000000e+00  1.4990529813490387e+00 -7.5590899306397498e-05 0.0000000000000000e+00  1.4978154321880941e+00 2.2163272290543365e-05 0.0000000000000000e+00  1.4726756488486332e+00 1.8791276889515643e-04 0.0000000000000000e+00  1.4107309310668410e+00 1.0784223840109749e-04 0.0000000000000000e+00  1.3421968312094501e+00 1.3384538301240852e-04 0.0000000000000000e+00  1.2734127165473650e+00 1.1977815444323445e-04 0.0000000000000000e+00  1.4062363150266166e+00 -7.7042944719587678e-10 0.0000000000000000e+00  1.4052836782071760e+00 -7.0188979946699535e-04 0.0000000000000000e+00  1.4028982250788584e+00 -8.2450502864542317e-04 0.0000000000000000e+00  1.4041199970832454e+00 1.3559447702964902e-03 0.0000000000000000e+00  1.4078535256222804e+00 1.3023160916105325e-03 0.0000000000000000e+00  1.3834890574264762e+00 6.3862827079354924e-03 0.0000000000000000e+00  1.3381947524678601e+00 1.1848514302283111e-02 0.0000000000000000e+00  1.2869240926702148e+00 1.4477200997862379e-02 0.0000000000000000e+00  1.2606601408131064e+00 3.1132071903233745e-03 0.0000000000000000e+00  1.1249860151996640e+00 -6.6480549091857261e-09 0.0000000000000000e+00  1.1248728767499103e+00 1.3818457339003176e-04 0.0000000000000000e+00  1.1239679943889533e+00 -8.4940490292658170e-04 0.0000000000000000e+00  1.1224243669712102e+00 3.9321978633897976e-04 0.0000000000000000e+00  1.1251170780479032e+00 2.8752023957562263e-03 0.0000000000000000e+00  1.1271779112118794e+00 1.0995745775376582e-02 0.0000000000000000e+00  1.1225255718380092e+00 1.5407542295739735e-02 0.0000000000000000e+00  1.1459131049350701e+00 1.7808671289451749e-02 0.0000000000000000e+00  1.1830780448639591e+00 -8.4948207121253796e-05 0.0000000000000000e+00  6.5624157293667706e-01 -1.5387693673272231e-08 0.0000000000000000e+00  6.5634379259211273e-01 1.3968642890219420e-04 0.0000000000000000e+00  6.5671335654611118e-01 -3.7280647458965609e-04 0.0000000000000000e+00  6.5755048751266720e-01 1.3727011099224815e-05 0.0000000000000000e+00  6.6222069167755993e-01 1.6208698256722563e-03 0.0000000000000000e+00  6.9481340210569753e-01 5.8500195921002652e-03 0.0000000000000000e+00  7.5678550879221840e-01 7.6654296005430498e-03 0.0000000000000000e+00  8.1074920631313863e-01 6.0186259992773064e-03 0.0000000000000000e+00  8.2747770896856532e-01 -1.4088304536826206e-03 0.0000000000000000e+00  -7.0324179419971301e-06 -7.6382694275595455e-09 0.0000000000000000e+00  -7.2618069978650268e-06 3.7898110455306676e-09 0.0000000000000000e+00  -4.4912428921655827e-06 1.5817538076587688e-08 0.0000000000000000e+00  -6.1698931930650286e-06 -8.1456613927212244e-09 0.0000000000000000e+00  -2.3153463068802165e-06 3.8383784177386122e-08 0.0000000000000000e+00  -6.9416051320619919e-06 1.8560544080753994e-08 0.0000000000000000e+00  -7.6168099587689971e-06 -4.3731434913726484e-08 0.0000000000000000e+00  7.1354208816548252e-07 -2.8776494048618442e-08 0.0000000000000000e+00  -1.1187314382804427e-05 -1.0144329598585714e-07 0.0000000000000000e+00  </DataArray> 
</PointData> 
</Piece>
</UnstructuredGrid>
</VTKFile>