<?xml version="1.0"?>
<VTKFile type="UnstructuredGrid"  version="0.1"  >
<UnstructuredGrid>
<Piece  NumberOfPoints="81" NumberOfCells="128">
<Points>
<DataArray  type="Float64"  NumberOfComponents="3"  format="ascii">0 0 0  0.275 0 0  0.55 0 0  0.8250000000000001 0 0  1.1 0 0  1.375 0 0  1.65 0 0  1.925 0 0  2.2 0 0  0 0.05125 0  0.275 0.05125 0  0.55 0.05125 0  0.8250000000000001 0.05125 0  1.1 0.05125 0  1.375 0.05125 0  1.65 0.05125 0  1.925 0.05125 0  2.2 0.05125 0  0 0.1025 0  0.275 0.1025 0  0.55 0.1025 0  0.8250000000000001 0.1025 0  1.1 0.1025 0  1.375 0.1025 0  1.65 0.1025 0  1.925 0.1025 0  2.2 0.1025 0  0 0.15375 0  0.275 0.15375 0  0.55 0.15375 0  0.8250000000000001 0.15375 0  1.1 0.15375 0  1.375 0.15375 0  1.65 0.15375 0  1.925 0.15375 0  2.2 0.15375 0  0 0.205 0  0.275 0.205 0  0.55 0.205 0  0.8250000000000001 0.205 0  1.1 0.205 0  1.375 0.205 0  1.65 0.205 0  1.925 0.205 0  2.2 0.205 0  0 0.25625 0  0.275 0.25625 0  0.55 0.25625 0  0.8250000000000001 0.25625 0  1.1 0.25625 0  1.375 0.25625 0  1.65 0.25625 0  1.925 0.25625 0  2.2 0.25625 0  0 0.3075 0  0.275 0.3075 0  0.55 0.3075 0  0.8250000000000001 0.3075 0  1.1 0.3075 0  1.375 0.3075 0  1.65 0.3075 0  1.925 0.3075 0  2.2 0.3075 0  0 0.35875 0  0.275 0.35875 0  0.55 0.35875 0  0.8250000000000001 0.35875 0  1.1 0.35875 0  1.375 0.35875 0  1.65 0.35875 0  1.925 0.35875 0  2.2 0.35875 0  0 0.41 0  0.275 0.41 0  0.55 0.41 0  0.8250000000000001 0.41 0  1.1 0.41 0  1.375 0.41 0  1.65 0.41 0  1.925 0.41 0  2.2 0.41 0  </DataArray>
</Points>
<Cells>
<DataArray  type="UInt32"  Name="connectivity"  format="ascii">0 1 9  1 9 10  1 2 11  1 10 11  2 3 11  3 11 12  3 4 13  3 12 13  4 5 13  5 13 14  5 6 15  5 14 15  6 7 15  7 15 16  7 8 17  7 16 17  9 10 19  9 18 19  10 11 19  11 19 20  11 12 21  11 20 21  12 13 21  13 21 22  13 14 23  13 22 23  14 15 23  15 23 24  15 16 25  15 24 25  16 17 25  17 25 26  18 19 27  19 27 28  19 20 29  19 28 29  20 21 29  21 29 30  21 22 31  21 30 31  22 23 31  23 31 32  23 24 33  23 32 33  24 25 33  25 33 34  25 26 35  25 34 35  27 28 37  27 36 37  28 29 37  29 37 38  29 30 39  29 38 39  30 31 39  31 39 40  31 32 41  31 40 41  32 33 41  33 41 42  33 34 43  33 42 43  34 35 43  35 43 44  36 37 45  37 45 46  37 38 47  37 46 47  38 39 47  39 47 48  39 40 49  39 48 49  40 41 49  41 49 50  41 42 51  41 50 51  42 43 51  43 51 52  43 44 53  43 52 53  45 46 55  45 54 55  46 47 55  47 55 56  47 48 57  47 56 57  48 49 57  49 57 58  49 50 59  49 58 59  50 51 59  51 59 60  51 52 61  51 60 61  52 53 61  53 61 62  54 55 63  55 63 64  55 56 65  55 64 65  56 57 65  57 65 66  57 58 67  57 66 67  58 59 67  59 67 68  59 60 69  59 68 69  60 61 69  61 69 70  61 62 71  61 70 71  63 64 73  63 72 73  64 65 73  65 73 74  65 66 75  65 74 75  66 67 75  67 75 76  67 68 77  67 76 77  68 69 77  69 77 78  69 70 79  69 78 79  70 71 79  71 79 80  </DataArray>
<DataArray  type="UInt32"  Name="offsets"  format="ascii">3 6 9 12 15 18 21 24 27 30 33 36 39 42 45 48 51 54 57 60 63 66 69 72 75 78 81 84 87 90 93 96 99 102 105 108 111 114 117 120 123 126 129 132 135 138 141 144 147 150 153 156 159 162 165 168 171 174 177 180 183 186 189 192 195 198 201 204 207 210 213 216 219 222 225 228 231 234 237 240 243 246 249 252 255 258 261 264 267 270 273 276 279 282 285 288 291 294 297 300 303 306 309 312 315 318 321 324 327 330 333 336 339 342 345 348 351 354 357 360 363 366 369 372 375 378 381 384 </DataArray>
<DataArray  type="UInt8"  Name="types"  format="ascii">5 5 5 5 5 5 5 5 5 5 5 5 5 5 5 5 5 5 5 5 5 5 5 5 5 5 5 5 5 5 5 5 5 5 5 5 5 5 5 5 5 5 5 5 5 5 5 5 5 5 5 5 5 5 5 5 5 5 5 5 5 5 5 5 5 5 5 5 5 5 5 5 5 5 5 5 5 5 5 5 5 5 5 5 5 5 5 5 5 5 5 5 5 5 5 5 5 5 5 5 5 5 5 5 5 5 5 5 5 5 5 5 5 5 5 5 5 5 5 5 5 5 5 5 5 5 5 5 </DataArray>
</Cells>
<PointData  Vectors="f_16"> 
<DataArray  type="Float64"  Name="f_16"  NumberOfComponents="3" format="ascii">2.0514822761363102e-05 -2.8231847659948028e-09 0.0000000000000000e+00  -1.2134540510416037e-06 -8.0367366871651809e-09 0.0000000000000000e+00  1.2066010479510794e-06 -1.7745444412309781e-08 0.0000000000000000e+00  -8.1638031833892395e-06 2.3684355383488363e-08 0.0000000000000000e+00  -3.0111356970505484e-06 1.3736400927836982e-08 0.0000000000000000e+00  -4.9218873927801320e-06 1.3651757220066110e-08 0.0000000000000000e+00  -5.9657262187713179e-06 4.9412511180233782e-08 0.0000000000000000e+00  -6.7024856842036741e-06 4.9478676384115087e-08 0.0000000000000000e+00  -3.1824950227292327e-06 3.3876075219798604e-08 0.0000000000000000e+00  6.5624701115286188e-01 1.3979045666233389e-08 0.0000000000000000e+00  6.5763671909386678e-01 -2.4308128091594036e-04 0.0000000000000000e+00  6.5849403972940734e-01 3.2514583121721419e-04 0.0000000000000000e+00  6.5929021455252967e-01 -4.5809958667284643e-05 0.0000000000000000e+00  6.6371153693942841e-01 -1.6041037801534928e-03 0.0000000000000000e+00  6.9627880312071955e-01 -5.7314664098624107e-03 0.0000000000000000e+00  7.5570031678565253e-01 -7.5390690356132396e-03 0.0000000000000000e+00  8.1199636598661296e-01 -6.0124431183912553e-03 0.0000000000000000e+00  8.2600192175690079e-01 1.8063011943127449e-03 0.0000000000000000e+00  1.1249841404620711e+00 6.6655480887749637e-09 0.0000000000000000e+00  1.1251354033832528e+00 -5.4286102477457720e-04 0.0000000000000000e+00  1.1228596529026043e+00 6.4683956620892086e-04 0.0000000000000000e+00  1.1243266627874209e+00 -5.8357155089909356e-04 0.0000000000000000e+00  1.1263120668817457e+00 -2.7283400272949446e-03 0.0000000000000000e+00  1.1267767314872905e+00 -1.0575697095364382e-02 0.0000000000000000e+00  1.1243148891250283e+00 -1.5281652871245452e-02 0.0000000000000000e+00  1.1452783404114033e+00 -1.7635924942350074e-02 0.0000000000000000e+00  1.1839727180937665e+00 2.4590574733248543e-04 0.0000000000000000e+00  1.4062396520317773e+00 -6.5841901824755332e-10 0.0000000000000000e+00  1.4052777851523390e+00 5.1437412047296478e-04 0.0000000000000000e+00  1.4037354544172327e+00 4.2904579036522061e-04 0.0000000000000000e+00  1.4040408179567927e+00 -1.5287556451260877e-03 0.0000000000000000e+00  1.4084664173284587e+00 -1.1317318279267386e-03 0.0000000000000000e+00  1.3856507625579320e+00 -6.0711211663834136e-03 0.0000000000000000e+00  1.3376134839362244e+00 -1.1796656305336994e-02 0.0000000000000000e+00  1.2884924844481340e+00 -1.4322306461762118e-02 0.0000000000000000e+00  1.2618291600432914e+00 -3.2962706901483122e-03 0.0000000000000000e+00  1.4999818395812583e+00 -2.9612929338493446e-10 0.0000000000000000e+00  1.5003360407735347e+00 -1.4981389354429216e-04 0.0000000000000000e+00  1.4953461747483916e+00 -1.5375534549863553e-04 0.0000000000000000e+00  1.4993667443807632e+00 -7.6196162551439147e-05 0.0000000000000000e+00  1.4978712979877329e+00 2.2380169037693056e-05 0.0000000000000000e+00  1.4729078925809374e+00 1.8831862818784249e-04 0.0000000000000000e+00  1.4115778036649356e+00 1.0806996272551660e-04 0.0000000000000000e+00  1.3437265275831234e+00 1.3356321930953384e-04 0.0000000000000000e+00  1.2738423864533648e+00 1.1893301580654631e-04 0.0000000000000000e+00  1.4062363155459237e+00 6.3147391827116334e-11 0.0000000000000000e+00  1.4052078550144365e+00 -7.1493144873668835e-04 0.0000000000000000e+00  1.4028998907538905e+00 -7.7923205343896748e-04 0.0000000000000000e+00  1.4043420293662505e+00 1.3607944142519453e-03 0.0000000000000000e+00  1.4079789440700412e+00 1.2200705939735173e-03 0.0000000000000000e+00  1.3836812697676644e+00 6.3038999697349425e-03 0.0000000000000000e+00  1.3388165925584852e+00 1.1858811926895007e-02 0.0000000000000000e+00  1.2878423152440917e+00 1.4387902109763991e-02 0.0000000000000000e+00  1.2607356499094000e+00 3.3550122119928032e-03 0.0000000000000000e+00  1.1249860147920197e+00 -5.4836863758003843e-09 0.0000000000000000e+00  1.1248480356372965e+00 1.1604105451690630e-04 0.0000000000000000e+00  1.1239466677176726e+00 -8.3901656402974722e-04 0.0000000000000000e+00  1.1225193933482422e+00 4.3595651619676961e-04 0.0000000000000000e+00  1.1252548867380083e+00 2.8169653631952879e-03 0.0000000000000000e+00  1.1271900176455549e+00 1.0848511665363558e-02 0.0000000000000000e+00  1.1223525553215083e+00 1.5412695814448414e-02 0.0000000000000000e+00  1.1454375385159097e+00 1.7844244456616216e-02 0.0000000000000000e+00  1.1828056970302046e+00 1.1138942490886772e-04 0.0000000000000000e+00  6.5624157333161715e-01 -1.5133166989910406e-08 0.0000000000000000e+00  6.5634482494134261e-01 1.3619883958152098e-04 0.0000000000000000e+00  6.5668241805899097e-01 -3.8425307725574969e-04 0.0000000000000000e+00  6.5750154176234576e-01 1.1810019714766443e-05 0.0000000000000000e+00  6.6211949257884861e-01 1.5906636584945694e-03 0.0000000000000000e+00  6.9434932138858674e-01 5.8058732426695455e-03 0.0000000000000000e+00  7.5588758879560536e-01 7.6776530255677983e-03 0.0000000000000000e+00  8.0987497194469893e-01 6.0756306947941444e-03 0.0000000000000000e+00  8.2724095912174855e-01 -1.4112933988945616e-03 0.0000000000000000e+00  -7.0326644103315362e-06 -8.0142904061501852e-09 0.0000000000000000e+00  -7.2604651248650878e-06 3.7712395948284302e-09 0.0000000000000000e+00  -4.4911179568364183e-06 1.5189938108916277e-08 0.0000000000000000e+00  -6.1733365170439238e-06 -8.1159741163198050e-09 0.0000000000000000e+00  -2.3170063996580794e-06 3.9010985454167687e-08 0.0000000000000000e+00  -6.9393037044034093e-06 1.8236720747180194e-08 0.0000000000000000e+00  -7.6090226355507869e-06 -4.3914760224463284e-08 0.0000000000000000e+00  7.1022152732328341e-07 -2.7947243145520968e-08 0.0000000000000000e+00  -1.1183658201156523e-05 -1.0260773439440820e-07 0.0000000000000000e+00  </DataArray> 
</PointData> 
</Piece>
</UnstructuredGrid>
</VTKFile>