<?xml version="1.0"?>
<VTKFile type="UnstructuredGrid"  version="0.1"  >
<UnstructuredGrid>
<Piece  NumberOfPoints="81" NumberOfCells="128">
<Points>
<DataArray  type="Float64"  NumberOfComponents="3"  format="ascii">0 0 0  0.275 0 0  0.55 0 0  0.8250000000000001 0 0  1.1 0 0  1.375 0 0  1.65 0 0  1.925 0 0  2.2 0 0  0 0.05125 0  0.275 0.05125 0  0.55 0.05125 0  0.8250000000000001 0.05125 0  1.1 0.05125 0  1.375 0.05125 0  1.65 0.05125 0  1.925 0.05125 0  2.2 0.05125 0  0 0.1025 0  0.275 0.1025 0  0.55 0.1025 0  0.8250000000000001 0.1025 0  1.1 0.1025 0  1.375 0.1025 0  1.65 0.1025 0  1.925 0.1025 0  2.2 0.1025 0  0 0.15375 0  0.275 0.15375 0  0.55 0.15375 0  0.8250000000000001 0.15375 0  1.1 0.15375 0  1.375 0.15375 0  1.65 0.15375 0  1.925 0.15375 0  2.2 0.15375 0  0 0.205 0  0.275 0.205 0  0.55 0.205 0  0.8250000000000001 0.205 0  1.1 0.205 0  1.375 0.205 0  1.65 0.205 0  1.925 0.205 0  2.2 0.205 0  0 0.25625 0  0.275 0.25625 0  0.55 0.25625 0  0.8250000000000001 0.25625 0  1.1 0.25625 0  1.375 0.25625 0  1.65 0.25625 0  1.925 0.25625 0  2.2 0.25625 0  0 0.3075 0  0.275 0.3075 0  0.55 0.3075 0  0.8250000000000001 0.3075 0  1.1 0.3075 0  1.375 0.3075 0  1.65 0.3075 0  1.925 0.3075 0  2.2 0.3075 0  0 0.35875 0  0.275 0.35875 0  0.55 0.35875 0  0.8250000000000001 0.35875 0  1.1 0.35875 0  1.375 0.35875 0  1.65 0.35875 0  1.925 0.35875 0  2.2 0.35875 0  0 0.41 0  0.275 0.41 0  0.55 0.41 0  0.8250000000000001 0.41 0  1.1 0.41 0  1.375 0.41 0  1.65 0.41 0  1.925 0.41 0  2.2 0.41 0  </DataArray>
</Points>
<Cells>
<DataArray  type="UInt32"  Name="connectivity"  format="ascii">0 1 9  1 9 10  1 2 11  1 10 11  2 3 11  3 11 12  3 4 13  3 12 13  4 5 13  5 13 14  5 6 15  5 14 15  6 7 15  7 15 16  7 8 17  7 16 17  9 10 19  9 18 19  10 11 19  11 19 20  11 12 21  11 20 21  12 13 21  13 21 22  13 14 23  13 22 23  14 15 23  15 23 24  15 16 25  15 24 25  16 17 25  17 25 26  18 19 27  19 27 28  19 20 29  19 28 29  20 21 29  21 29 30  21 22 31  21 30 31  22 23 31  23 31 32  23 24 33  23 32 33  24 25 33  25 33 34  25 26 35  25 34 35  27 28 37  27 36 37  28 29 37  29 37 38  29 30 39  29 38 39  30 31 39  31 39 40  31 32 41  31 40 41  32 33 41  33 41 42  33 34 43  33 42 43  34 35 43  35 43 44  36 37 45  37 45 46  37 38 47  37 46 47  38 39 47  39 47 48  39 40 49  39 48 49  40 41 49  41 49 50  41 42 51  41 50 51  42 43 51  43 51 52  43 44 53  43 52 53  45 46 55  45 54 55  46 47 55  47 55 56  47 48 57  47 56 57  48 49 57  49 57 58  49 50 59  49 58 59  50 51 59  51 59 60  51 52 61  51 60 61  52 53 61  53 61 62  54 55 63  55 63 64  55 56 65  55 64 65  56 57 65  57 65 66  57 58 67  57 66 67  58 59 67  59 67 68  59 60 69  59 68 69  60 61 69  61 69 70  61 62 71  61 70 71  63 64 73  63 72 73  64 65 73  65 73 74  65 66 75  65 74 75  66 67 75  67 75 76  67 68 77  67 76 77  68 69 77  69 77 78  69 70 79  69 78 79  70 71 79  71 79 80  </DataArray>
<DataArray  type="UInt32"  Name="offsets"  format="ascii">3 6 9 12 15 18 21 24 27 30 33 36 39 42 45 48 51 54 57 60 63 66 69 72 75 78 81 84 87 90 93 96 99 102 105 108 111 114 117 120 123 126 129 132 135 138 141 144 147 150 153 156 159 162 165 168 171 174 177 180 183 186 189 192 195 198 201 204 207 210 213 216 219 222 225 228 231 234 237 240 243 246 249 252 255 258 261 264 267 270 273 276 279 282 285 288 291 294 297 300 303 306 309 312 315 318 321 324 327 330 333 336 339 342 345 348 351 354 357 360 363 366 369 372 375 378 381 384 </DataArray>
<DataArray  type="UInt8"  Name="types"  format="ascii">5 5 5 5 5 5 5 5 5 5 5 5 5 5 5 5 5 5 5 5 5 5 5 5 5 5 5 5 5 5 5 5 5 5 5 5 5 5 5 5 5 5 5 5 5 5 5 5 5 5 5 5 5 5 5 5 5 5 5 5 5 5 5 5 5 5 5 5 5 5 5 5 5 5 5 5 5 5 5 5 5 5 5 5 5 5 5 5 5 5 5 5 5 5 5 5 5 5 5 5 5 5 5 5 5 5 5 5 5 5 5 5 5 5 5 5 5 5 5 5 5 5 5 5 5 5 5 5 </DataArray>
</Cells>
<PointData  Vectors="f_16"> 
<DataArray  type="Float64"  Name="f_16"  NumberOfComponents="3" format="ascii">2.2840431613941817e-05 6.0379686452160257e-08 0.0000000000000000e+00  -1.9029176827931078e-07 1.5988935075593528e-07 0.0000000000000000e+00  2.4090533027883388e-07 1.2857217954258472e-07 0.0000000000000000e+00  -8.9539713351617147e-06 5.7173368320024808e-07 0.0000000000000000e+00  -5.0832376255567712e-06 3.4539795597978938e-07 0.0000000000000000e+00  -5.5917233353247031e-06 6.4728717354301192e-08 0.0000000000000000e+00  -9.3463134583692446e-06 2.0737307173226523e-07 0.0000000000000000e+00  -7.1842578340673672e-06 -1.4255252625788664e-07 0.0000000000000000e+00  -5.0706129439325293e-06 2.4131962288072291e-08 0.0000000000000000e+00  6.5624808347912067e-01 1.3929080058346966e-07 0.0000000000000000e+00  6.8423248838660222e-01 -6.3676772676762297e-03 0.0000000000000000e+00  8.7002764440273006e-01 -4.1852406749056138e-02 0.0000000000000000e+00  1.0563883574187958e+00 1.2483502763057054e-03 0.0000000000000000e+00  1.0490850608650217e+00 5.2918324285384571e-03 0.0000000000000000e+00  1.0024549006805967e+00 -9.4326937407055601e-03 0.0000000000000000e+00  1.0581730420830686e+00 7.7476417022142524e-03 0.0000000000000000e+00  1.0096983928251804e+00 -6.3816973648789885e-03 0.0000000000000000e+00  1.0449535671221546e+00 7.7508355694097582e-03 0.0000000000000000e+00  1.1249842801571599e+00 1.5695886038711268e-07 0.0000000000000000e+00  1.1108698077573871e+00 -1.9266106607974197e-02 0.0000000000000000e+00  1.0432058206962278e+00 -9.0569680359843141e-02 0.0000000000000000e+00  1.1496774469501119e+00 1.4720948877871927e-02 0.0000000000000000e+00  1.1337539230412494e+00 1.7224266856440023e-03 0.0000000000000000e+00  1.0965752468972736e+00 -4.0240659246537731e-03 0.0000000000000000e+00  1.1474858167390214e+00 4.3209315098672128e-03 0.0000000000000000e+00  1.1131834691962408e+00 -6.2400426518394968e-03 0.0000000000000000e+00  1.1448101824691950e+00 3.8668673305672667e-03 0.0000000000000000e+00  1.4062403951282121e+00 3.2445180132837640e-07 0.0000000000000000e+00  1.3745304623906893e+00 -5.2907644347492590e-03 0.0000000000000000e+00  1.2051637100165411e+00 -6.1818677758093979e-02 0.0000000000000000e+00  1.1451428082104340e+00 5.3344891190561803e-03 0.0000000000000000e+00  1.1496884892740922e+00 -5.5004123274265335e-03 0.0000000000000000e+00  1.1035926361158797e+00 -2.2552609468989571e-03 0.0000000000000000e+00  1.1601714682413420e+00 1.2297313292465217e-03 0.0000000000000000e+00  1.1178245263259579e+00 -1.3949826166553144e-03 0.0000000000000000e+00  1.1518959104633220e+00 1.9179857590203137e-03 0.0000000000000000e+00  1.4999819556406069e+00 -7.6722168635678088e-08 0.0000000000000000e+00  1.4750742552609648e+00 -1.4092160653472182e-04 0.0000000000000000e+00  1.2777735826595644e+00 -1.0653149419564427e-04 0.0000000000000000e+00  1.1434242447598320e+00 2.3101693318766190e-05 0.0000000000000000e+00  1.1533211915983732e+00 -4.4485636014822458e-05 0.0000000000000000e+00  1.0968580183286278e+00 1.4732698071589153e-04 0.0000000000000000e+00  1.1637184384100288e+00 1.2922733587241041e-04 0.0000000000000000e+00  1.1146970487143442e+00 6.9802441167716040e-05 0.0000000000000000e+00  1.1518566746101695e+00 -9.6729616207468598e-05 0.0000000000000000e+00  1.4062376886939365e+00 -3.2380052858230067e-07 0.0000000000000000e+00  1.3742566312473183e+00 5.2312594101602081e-03 0.0000000000000000e+00  1.2035995246683482e+00 6.1746073825561597e-02 0.0000000000000000e+00  1.1459564056257374e+00 -5.4007076135781790e-03 0.0000000000000000e+00  1.1497256352063321e+00 5.5742360058777269e-03 0.0000000000000000e+00  1.1017083343169836e+00 2.4655659255502136e-03 0.0000000000000000e+00  1.1621805345986778e+00 -1.1458330696715831e-03 0.0000000000000000e+00  1.1183408335875527e+00 1.4856630523029728e-03 0.0000000000000000e+00  1.1511897846951371e+00 -2.1782414237137061e-03 0.0000000000000000e+00  1.1249859216779614e+00 -1.2912820664756703e-07 0.0000000000000000e+00  1.1104494993865492e+00 1.8960706137555877e-02 0.0000000000000000e+00  1.0447038645674009e+00 9.0577917791990495e-02 0.0000000000000000e+00  1.1487517735785007e+00 -1.4822624829561050e-02 0.0000000000000000e+00  1.1331983678008721e+00 -1.6426662183621516e-03 0.0000000000000000e+00  1.0978544045258345e+00 4.1047474367264516e-03 0.0000000000000000e+00  1.1461466136075649e+00 -4.3095155946027194e-03 0.0000000000000000e+00  1.1145068810406284e+00 6.3635668113807848e-03 0.0000000000000000e+00  1.1444057388703295e+00 -3.6991510786948943e-03 0.0000000000000000e+00  6.5624253180394021e-01 -1.9516032876705444e-07 0.0000000000000000e+00  6.8353916049214580e-01 6.3368367955724102e-03 0.0000000000000000e+00  8.6869526103657557e-01 4.1791992457169566e-02 0.0000000000000000e+00  1.0556537700026869e+00 -1.2318852665745012e-03 0.0000000000000000e+00  1.0488922362689732e+00 -5.3020697646033715e-03 0.0000000000000000e+00  1.0016835206516796e+00 9.4474067810546951e-03 0.0000000000000000e+00  1.0585751748407148e+00 -7.6456845885465525e-03 0.0000000000000000e+00  1.0074876718618408e+00 6.3766292259211810e-03 0.0000000000000000e+00  1.0456623355780943e+00 -7.4250673579554479e-03 0.0000000000000000e+00  -6.8276718530682820e-06 -3.6687255948467921e-07 0.0000000000000000e+00  -6.2113233260702828e-06 -2.1120183712085514e-07 0.0000000000000000e+00  -5.3528956601301855e-06 -3.7536226978392737e-07 0.0000000000000000e+00  -7.1375798442778855e-06 -6.7578933861955878e-07 0.0000000000000000e+00  -4.4139859805216071e-06 -5.2183432448630970e-07 0.0000000000000000e+00  -8.2319983827716118e-06 -4.4325608080617092e-08 0.0000000000000000e+00  -1.1170277369053488e-05 -1.5445266572548426e-07 0.0000000000000000e+00  1.3489994590637991e-06 1.1975194414269242e-07 0.0000000000000000e+00  -1.0702534359437563e-05 3.5847128846303945e-10 0.0000000000000000e+00  </DataArray> 
</PointData> 
</Piece>
</UnstructuredGrid>
</VTKFile>