<?xml version="1.0"?>
<VTKFile type="UnstructuredGrid"  version="0.1"  >
<UnstructuredGrid>
<Piece  NumberOfPoints="81" NumberOfCells="128">
<Points>
<DataArray  type="Float64"  NumberOfComponents="3"  format="ascii">0 0 0  0.275 0 0  0.55 0 0  0.8250000000000001 0 0  1.1 0 0  1.375 0 0  1.65 0 0  1.925 0 0  2.2 0 0  0 0.05125 0  0.275 0.05125 0  0.55 0.05125 0  0.8250000000000001 0.05125 0  1.1 0.05125 0  1.375 0.05125 0  1.65 0.05125 0  1.925 0.05125 0  2.2 0.05125 0  0 0.1025 0  0.275 0.1025 0  0.55 0.1025 0  0.8250000000000001 0.1025 0  1.1 0.1025 0  1.375 0.1025 0  1.65 0.1025 0  1.925 0.1025 0  2.2 0.1025 0  0 0.15375 0  0.275 0.15375 0  0.55 0.15375 0  0.8250000000000001 0.15375 0  1.1 0.15375 0  1.375 0.15375 0  1.65 0.15375 0  1.925 0.15375 0  2.2 0.15375 0  0 0.205 0  0.275 0.205 0  0.55 0.205 0  0.8250000000000001 0.205 0  1.1 0.205 0  1.375 0.205 0  1.65 0.205 0  1.925 0.205 0  2.2 0.205 0  0 0.25625 0  0.275 0.25625 0  0.55 0.25625 0  0.8250000000000001 0.25625 0  1.1 0.25625 0  1.375 0.25625 0  1.65 0.25625 0  1.925 0.25625 0  2.2 0.25625 0  0 0.3075 0  0.275 0.3075 0  0.55 0.3075 0  0.8250000000000001 0.3075 0  1.1 0.3075 0  1.375 0.3075 0  1.65 0.3075 0  1.925 0.3075 0  2.2 0.3075 0  0 0.35875 0  0.275 0.35875 0  0.55 0.35875 0  0.8250000000000001 0.35875 0  1.1 0.35875 0  1.375 0.35875 0  1.65 0.35875 0  1.925 0.35875 0  2.2 0.35875 0  0 0.41 0  0.275 0.41 0  0.55 0.41 0  0.8250000000000001 0.41 0  1.1 0.41 0  1.375 0.41 0  1.65 0.41 0  1.925 0.41 0  2.2 0.41 0  </DataArray>
</Points>
<Cells>
<DataArray  type="UInt32"  Name="connectivity"  format="ascii">0 1 9  1 9 10  1 2 11  1 10 11  2 3 11  3 11 12  3 4 13  3 12 13  4 5 13  5 13 14  5 6 15  5 14 15  6 7 15  7 15 16  7 8 17  7 16 17  9 10 19  9 18 19  10 11 19  11 19 20  11 12 21  11 20 21  12 13 21  13 21 22  13 14 23  13 22 23  14 15 23  15 23 24  15 16 25  15 24 25  16 17 25  17 25 26  18 19 27  19 27 28  19 20 29  19 28 29  20 21 29  21 29 30  21 22 31  21 30 31  22 23 31  23 31 32  23 24 33  23 32 33  24 25 33  25 33 34  25 26 35  25 34 35  27 28 37  27 36 37  28 29 37  29 37 38  29 30 39  29 38 39  30 31 39  31 39 40  31 32 41  31 40 41  32 33 41  33 41 42  33 34 43  33 42 43  34 35 43  35 43 44  36 37 45  37 45 46  37 38 47  37 46 47  38 39 47  39 47 48  39 40 49  39 48 49  40 41 49  41 49 50  41 42 51  41 50 51  42 43 51  43 51 52  43 44 53  43 52 53  45 46 55  45 54 55  46 47 55  47 55 56  47 48 57  47 56 57  48 49 57  49 57 58  49 50 59  49 58 59  50 51 59  51 59 60  51 52 61  51 60 61  52 53 61  53 61 62  54 55 63  55 63 64  55 56 65  55 64 65  56 57 65  57 65 66  57 58 67  57 66 67  58 59 67  59 67 68  59 60 69  59 68 69  60 61 69  61 69 70  61 62 71  61 70 71  63 64 73  63 72 73  64 65 73  65 73 74  65 66 75  65 74 75  66 67 75  67 75 76  67 68 77  67 76 77  68 69 77  69 77 78  69 70 79  69 78 79  70 71 79  71 79 80  </DataArray>
<DataArray  type="UInt32"  Name="offsets"  format="ascii">3 6 9 12 15 18 21 24 27 30 33 36 39 42 45 48 51 54 57 60 63 66 69 72 75 78 81 84 87 90 93 96 99 102 105 108 111 114 117 120 123 126 129 132 135 138 141 144 147 150 153 156 159 162 165 168 171 174 177 180 183 186 189 192 195 198 201 204 207 210 213 216 219 222 225 228 231 234 237 240 243 246 249 252 255 258 261 264 267 270 273 276 279 282 285 288 291 294 297 300 303 306 309 312 315 318 321 324 327 330 333 336 339 342 345 348 351 354 357 360 363 366 369 372 375 378 381 384 </DataArray>
<DataArray  type="UInt8"  Name="types"  format="ascii">5 5 5 5 5 5 5 5 5 5 5 5 5 5 5 5 5 5 5 5 5 5 5 5 5 5 5 5 5 5 5 5 5 5 5 5 5 5 5 5 5 5 5 5 5 5 5 5 5 5 5 5 5 5 5 5 5 5 5 5 5 5 5 5 5 5 5 5 5 5 5 5 5 5 5 5 5 5 5 5 5 5 5 5 5 5 5 5 5 5 5 5 5 5 5 5 5 5 5 5 5 5 5 5 5 5 5 5 5 5 5 5 5 5 5 5 5 5 5 5 5 5 5 5 5 5 5 5 </DataArray>
</Cells>
<PointData  Vectors="f_16"> 
<DataArray  type="Float64"  Name="f_16"  NumberOfComponents="3" format="ascii">2.0496294890203244e-05 -9.6057605857039102e-09 0.0000000000000000e+00  -1.2219292591007836e-06 -1.2802964097323437e-09 0.0000000000000000e+00  1.0924311446003009e-06 -9.5882105537964444e-09 0.0000000000000000e+00  -8.1961802465091813e-06 1.0974177131829030e-08 0.0000000000000000e+00  -2.9418300809514024e-06 1.3295210342014834e-08 0.0000000000000000e+00  -4.8052475863215022e-06 1.6689667458133733e-08 0.0000000000000000e+00  -5.5141969716999641e-06 2.2528650588538411e-08 0.0000000000000000e+00  -6.1828191180458495e-06 5.4204753995779621e-08 0.0000000000000000e+00  -2.0176914121696966e-06 4.4254831547744494e-08 0.0000000000000000e+00  6.5624702676077273e-01 3.4046620687570565e-09 0.0000000000000000e+00  6.5712797008254709e-01 -1.7041083328935732e-04 0.0000000000000000e+00  6.5850043386085544e-01 1.0554168987179677e-04 0.0000000000000000e+00  6.5857844732318904e-01 -2.1863829219478131e-04 0.0000000000000000e+00  6.5968004197741525e-01 -4.0731463278828562e-04 0.0000000000000000e+00  6.6780785101093354e-01 -1.7219695589889609e-03 0.0000000000000000e+00  6.9234185998896802e-01 -5.5945956462092163e-03 0.0000000000000000e+00  7.3828346822223034e-01 -5.5688467058350012e-03 0.0000000000000000e+00  7.8641990286753594e-01 -3.7728538745302269e-03 0.0000000000000000e+00  1.1249841675112426e+00 9.0927585043599448e-09 0.0000000000000000e+00  1.1264225118255895e+00 -6.9925358536905395e-04 0.0000000000000000e+00  1.1245967185905341e+00 -3.4666022382482047e-05 0.0000000000000000e+00  1.1263801853269289e+00 -4.2253697796406785e-04 0.0000000000000000e+00  1.1246273684841916e+00 -1.0252843854170117e-03 0.0000000000000000e+00  1.1246301765855995e+00 -2.3437317909767320e-03 0.0000000000000000e+00  1.1226561998606148e+00 -8.6573554170503442e-03 0.0000000000000000e+00  1.1253101663351288e+00 -1.2872074542109679e-02 0.0000000000000000e+00  1.1492849218136021e+00 -1.3343962986296184e-02 0.0000000000000000e+00  1.4062396196057829e+00 2.8276731796741745e-09 0.0000000000000000e+00  1.4065085560669786e+00 -1.4599720640567814e-04 0.0000000000000000e+00  1.4068193547096786e+00 1.9914792110562769e-04 0.0000000000000000e+00  1.4032825054550333e+00 -4.8801699024563253e-04 0.0000000000000000e+00  1.4095131814201316e+00 -7.7295484646015171e-04 0.0000000000000000e+00  1.4038791859217841e+00 -1.1227462713409876e-03 0.0000000000000000e+00  1.3828699324518328e+00 -5.7404027272320406e-03 0.0000000000000000e+00  1.3451066491345833e+00 -9.6170067744879312e-03 0.0000000000000000e+00  1.3058102260177622e+00 -1.1393913437251020e-02 0.0000000000000000e+00  1.4999819085817059e+00 1.3354353949171907e-09 0.0000000000000000e+00  1.5017334134899505e+00 -1.5374297570304159e-04 0.0000000000000000e+00  1.4973319188944798e+00 -1.6655157099692994e-04 0.0000000000000000e+00  1.5003886706819973e+00 -9.3158963373985855e-05 0.0000000000000000e+00  1.4995718379164149e+00 -8.1573149016350803e-06 0.0000000000000000e+00  1.4988172548935625e+00 1.8674883942210359e-04 0.0000000000000000e+00  1.4683472770071258e+00 2.3314204924012157e-04 0.0000000000000000e+00  1.4229183023101193e+00 1.5083698218883783e-04 0.0000000000000000e+00  1.3592214121648858e+00 1.3464374258853262e-05 0.0000000000000000e+00  1.4062362699207298e+00 -2.2005824664957903e-09 0.0000000000000000e+00  1.4064244057404065e+00 -6.6022115490119827e-05 0.0000000000000000e+00  1.4059553353139742e+00 -5.7157616939989447e-04 0.0000000000000000e+00  1.4035868701468754e+00 2.7735802985640002e-04 0.0000000000000000e+00  1.4089210388997337e+00 7.5611767587353905e-04 0.0000000000000000e+00  1.4017763730201274e+00 1.3832893275474603e-03 0.0000000000000000e+00  1.3842347543838172e+00 6.1043373844334387e-03 0.0000000000000000e+00  1.3447476454114369e+00 9.6984484423775115e-03 0.0000000000000000e+00  1.3047900222028614e+00 1.1215574990728927e-02 0.0000000000000000e+00  1.1249860620117011e+00 -7.8057672919326555e-09 0.0000000000000000e+00  1.1261138842104950e+00 2.6611132726412251e-04 0.0000000000000000e+00  1.1256538006756738e+00 -1.7755867747556908e-04 0.0000000000000000e+00  1.1245237929849061e+00 2.4780385168331128e-04 0.0000000000000000e+00  1.1234021281474755e+00 1.0810240525758973e-03 0.0000000000000000e+00  1.1247826257642215e+00 2.6186253945485382e-03 0.0000000000000000e+00  1.1208108409395550e+00 8.9333793125663998e-03 0.0000000000000000e+00  1.1258775949513042e+00 1.3132219176636270e-02 0.0000000000000000e+00  1.1480182692887422e+00 1.3565389148669057e-02 0.0000000000000000e+00  6.5624153601423985e-01 -4.1916308944553920e-09 0.0000000000000000e+00  6.5585656767087297e-01 6.2987149134991017e-05 0.0000000000000000e+00  6.5666149751247072e-01 -1.7549859204684081e-04 0.0000000000000000e+00  6.5668466866600039e-01 1.7569875699794624e-04 0.0000000000000000e+00  6.5787120854453662e-01 3.8574096289252372e-04 0.0000000000000000e+00  6.6559754583641439e-01 1.8104903435882563e-03 0.0000000000000000e+00  6.9259917668488291e-01 5.7849939969533476e-03 0.0000000000000000e+00  7.3652574808758331e-01 5.6520914828144652e-03 0.0000000000000000e+00  7.8756575518074001e-01 4.1261324641137642e-03 0.0000000000000000e+00  -7.0255196211859735e-06 3.3971191284468625e-09 0.0000000000000000e+00  -7.2590033841821094e-06 -1.2907250492225377e-09 0.0000000000000000e+00  -4.5743608819744001e-06 7.1632813788416180e-09 0.0000000000000000e+00  -6.2421630198737085e-06 -3.5770620972798458e-09 0.0000000000000000e+00  -2.3150449822249086e-06 2.3739899772178138e-08 0.0000000000000000e+00  -6.9358919466944994e-06 -4.5931612656020510e-09 0.0000000000000000e+00  -7.1312556058546364e-06 -1.4830760424075686e-08 0.0000000000000000e+00  7.2861983625083976e-07 8.0684816798180367e-09 0.0000000000000000e+00  -1.0458430099700332e-05 -1.2220271454407583e-07 0.0000000000000000e+00  </DataArray> 
</PointData> 
</Piece>
</UnstructuredGrid>
</VTKFile>