<?xml version="1.0"?>
<VTKFile type="UnstructuredGrid"  version="0.1"  >
<UnstructuredGrid>
<Piece  NumberOfPoints="81" NumberOfCells="128">
<Points>
<DataArray  type="Float64"  NumberOfComponents="3"  format="ascii">0 0 0  0.275 0 0  0.55 0 0  0.8250000000000001 0 0  1.1 0 0  1.375 0 0  1.65 0 0  1.925 0 0  2.2 0 0  0 0.05125 0  0.275 0.05125 0  0.55 0.05125 0  0.8250000000000001 0.05125 0  1.1 0.05125 0  1.375 0.05125 0  1.65 0.05125 0  1.925 0.05125 0  2.2 0.05125 0  0 0.1025 0  0.275 0.1025 0  0.55 0.1025 0  0.8250000000000001 0.1025 0  1.1 0.1025 0  1.375 0.1025 0  1.65 0.1025 0  1.925 0.1025 0  2.2 0.1025 0  0 0.15375 0  0.275 0.15375 0  0.55 0.15375 0  0.8250000000000001 0.15375 0  1.1 0.15375 0  1.375 0.15375 0  1.65 0.15375 0  1.925 0.15375 0  2.2 0.15375 0  0 0.205 0  0.275 0.205 0  0.55 0.205 0  0.8250000000000001 0.205 0  1.1 0.205 0  1.375 0.205 0  1.65 0.205 0  1.925 0.205 0  2.2 0.205 0  0 0.25625 0  0.275 0.25625 0  0.55 0.25625 0  0.8250000000000001 0.25625 0  1.1 0.25625 0  1.375 0.25625 0  1.65 0.25625 0  1.925 0.25625 0  2.2 0.25625 0  0 0.3075 0  0.275 0.3075 0  0.55 0.3075 0  0.8250000000000001 0.3075 0  1.1 0.3075 0  1.375 0.3075 0  1.65 0.3075 0  1.925 0.3075 0  2.2 0.3075 0  0 0.35875 0  0.275 0.35875 0  0.55 0.35875 0  0.8250000000000001 0.35875 0  1.1 0.35875 0  1.375 0.35875 0  1.65 0.35875 0  1.925 0.35875 0  2.2 0.35875 0  0 0.41 0  0.275 0.41 0  0.55 0.41 0  0.8250000000000001 0.41 0  1.1 0.41 0  1.375 0.41 0  1.65 0.41 0  1.925 0.41 0  2.2 0.41 0  </DataArray>
</Points>
<Cells>
<DataArray  type="UInt32"  Name="connectivity"  format="ascii">0 1 9  1 9 10  1 2 11  1 10 11  2 3 11  3 11 12  3 4 13  3 12 13  4 5 13  5 13 14  5 6 15  5 14 15  6 7 15  7 15 16  7 8 17  7 16 17  9 10 19  9 18 19  10 11 19  11 19 20  11 12 21  11 20 21  12 13 21  13 21 22  13 14 23  13 22 23  14 15 23  15 23 24  15 16 25  15 24 25  16 17 25  17 25 26  18 19 27  19 27 28  19 20 29  19 28 29  20 21 29  21 29 30  21 22 31  21 30 31  22 23 31  23 31 32  23 24 33  23 32 33  24 25 33  25 33 34  25 26 35  25 34 35  27 28 37  27 36 37  28 29 37  29 37 38  29 30 39  29 38 39  30 31 39  31 39 40  31 32 41  31 40 41  32 33 41  33 41 42  33 34 43  33 42 43  34 35 43  35 43 44  36 37 45  37 45 46  37 38 47  37 46 47  38 39 47  39 47 48  39 40 49  39 48 49  40 41 49  41 49 50  41 42 51  41 50 51  42 43 51  43 51 52  43 44 53  43 52 53  45 46 55  45 54 55  46 47 55  47 55 56  47 48 57  47 56 57  48 49 57  49 57 58  49 50 59  49 58 59  50 51 59  51 59 60  51 52 61  51 60 61  52 53 61  53 61 62  54 55 63  55 63 64  55 56 65  55 64 65  56 57 65  57 65 66  57 58 67  57 66 67  58 59 67  59 67 68  59 60 69  59 68 69  60 61 69  61 69 70  61 62 71  61 70 71  63 64 73  63 72 73  64 65 73  65 73 74  65 66 75  65 74 75  66 67 75  67 75 76  67 68 77  67 76 77  68 69 77  69 77 78  69 70 79  69 78 79  70 71 79  71 79 80  </DataArray>
<DataArray  type="UInt32"  Name="offsets"  format="ascii">3 6 9 12 15 18 21 24 27 30 33 36 39 42 45 48 51 54 57 60 63 66 69 72 75 78 81 84 87 90 93 96 99 102 105 108 111 114 117 120 123 126 129 132 135 138 141 144 147 150 153 156 159 162 165 168 171 174 177 180 183 186 189 192 195 198 201 204 207 210 213 216 219 222 225 228 231 234 237 240 243 246 249 252 255 258 261 264 267 270 273 276 279 282 285 288 291 294 297 300 303 306 309 312 315 318 321 324 327 330 333 336 339 342 345 348 351 354 357 360 363 366 369 372 375 378 381 384 </DataArray>
<DataArray  type="UInt8"  Name="types"  format="ascii">5 5 5 5 5 5 5 5 5 5 5 5 5 5 5 5 5 5 5 5 5 5 5 5 5 5 5 5 5 5 5 5 5 5 5 5 5 5 5 5 5 5 5 5 5 5 5 5 5 5 5 5 5 5 5 5 5 5 5 5 5 5 5 5 5 5 5 5 5 5 5 5 5 5 5 5 5 5 5 5 5 5 5 5 5 5 5 5 5 5 5 5 5 5 5 5 5 5 5 5 5 5 5 5 5 5 5 5 5 5 5 5 5 5 5 5 5 5 5 5 5 5 5 5 5 5 5 5 </DataArray>
</Cells>
<PointData  Vectors="f_16"> 
<DataArray  type="Float64"  Name="f_16"  NumberOfComponents="3" format="ascii">2.9332621366006272e-05 -1.1779305056403063e-06 0.0000000000000000e+00  1.7759203518616549e-07 -8.2801335232078207e-07 0.0000000000000000e+00  -2.4190938955707942e-06 5.5718369013842240e-07 0.0000000000000000e+00  -7.8726799712511718e-06 -1.2690035814723556e-08 0.0000000000000000e+00  -6.1684891165353234e-06 6.4813065983721126e-08 0.0000000000000000e+00  -6.0461300374214828e-06 -1.6822940522532514e-07 0.0000000000000000e+00  -1.0140151455303912e-05 -7.0576671991829241e-08 0.0000000000000000e+00  -7.1592488807243058e-06 -1.5404390939955107e-07 0.0000000000000000e+00  -5.5377319040382165e-06 -7.2283412234566106e-08 0.0000000000000000e+00  6.5625034227954615e-01 -9.9126988141530751e-07 0.0000000000000000e+00  7.6262804949133334e-01 -1.0539984509457154e-01 0.0000000000000000e+00  1.0763326127543076e+00 5.6877155055600322e-02 0.0000000000000000e+00  1.0266707839932077e+00 -1.0954644977833706e-02 0.0000000000000000e+00  1.0716179168232025e+00 9.1071467954605238e-03 0.0000000000000000e+00  1.0628087579761425e+00 -3.8415882205859475e-03 0.0000000000000000e+00  1.0783746520698996e+00 6.7986657080713513e-03 0.0000000000000000e+00  1.0736045290863960e+00 -4.4907417094935053e-04 0.0000000000000000e+00  1.0884120006148850e+00 1.4733644822689384e-02 0.0000000000000000e+00  1.1249891207178433e+00 -5.1413474598841251e-07 0.0000000000000000e+00  1.0529479630964655e+00 -1.4836423424790354e-01 0.0000000000000000e+00  1.1316299836778958e+00 1.6133120707394464e-03 0.0000000000000000e+00  1.0184166974765290e+00 -2.4052182575471360e-02 0.0000000000000000e+00  1.1350999319469346e+00 2.4562685836509923e-03 0.0000000000000000e+00  1.0584133070138491e+00 -7.8509467223404003e-03 0.0000000000000000e+00  1.1247594618895478e+00 1.8534996060327574e-03 0.0000000000000000e+00  1.0681909220140593e+00 -6.5588161417196303e-03 0.0000000000000000e+00  1.1221665176654050e+00 7.4710596878679123e-03 0.0000000000000000e+00  1.4062420011314585e+00 -1.0314977246743861e-07 0.0000000000000000e+00  1.2593498672519170e+00 -6.1032483244676930e-02 0.0000000000000000e+00  1.1349577006655747e+00 2.0094353075154205e-02 0.0000000000000000e+00  1.0549289162298616e+00 -3.8058711254896861e-03 0.0000000000000000e+00  1.1220754096073067e+00 5.9557598087185111e-03 0.0000000000000000e+00  1.0846403628693138e+00 1.0873728049337805e-03 0.0000000000000000e+00  1.1118706811906118e+00 3.2111219490271944e-03 0.0000000000000000e+00  1.0855597345401315e+00 1.0928828950270602e-03 0.0000000000000000e+00  1.1188688533997431e+00 4.6751311648904528e-03 0.0000000000000000e+00  1.4999875849674233e+00 4.1002184416889934e-08 0.0000000000000000e+00  1.3687527434526907e+00 -1.7422496428426954e-04 0.0000000000000000e+00  1.1354032583501363e+00 -9.2403466994226393e-06 0.0000000000000000e+00  1.0537649550297126e+00 -3.1783733914928292e-05 0.0000000000000000e+00  1.1211924104373723e+00 4.5599397104831678e-05 0.0000000000000000e+00  1.0857559468806763e+00 8.1177278629623726e-05 0.0000000000000000e+00  1.1126239168450105e+00 7.9551537388691053e-05 0.0000000000000000e+00  1.0846660461002118e+00 -5.2602457887515815e-05 0.0000000000000000e+00  1.1182789566027456e+00 -7.5540652712324577e-05 0.0000000000000000e+00  1.4062398617797705e+00 1.0354792339603996e-07 0.0000000000000000e+00  1.2593661882893805e+00 6.0882285102700634e-02 0.0000000000000000e+00  1.1341090133508989e+00 -2.0147990976951202e-02 0.0000000000000000e+00  1.0560056794981962e+00 3.7630490073935307e-03 0.0000000000000000e+00  1.1216264870058206e+00 -5.7010564902244465e-03 0.0000000000000000e+00  1.0833262586205943e+00 -1.0975629541859590e-03 0.0000000000000000e+00  1.1144296406636622e+00 -3.0440594928413749e-03 0.0000000000000000e+00  1.0853657534487122e+00 -1.1640405255973916e-03 0.0000000000000000e+00  1.1181336390248799e+00 -5.0218784628131580e-03 0.0000000000000000e+00  1.1249911232029723e+00 2.1917832083671085e-07 0.0000000000000000e+00  1.0526116119448718e+00 1.4816930333002543e-01 0.0000000000000000e+00  1.1335370069803756e+00 -1.6103335087666280e-03 0.0000000000000000e+00  1.0169129731322735e+00 2.4011964831727121e-02 0.0000000000000000e+00  1.1353102260053585e+00 -2.4152518452664386e-03 0.0000000000000000e+00  1.0592569026995684e+00 7.7704016315419495e-03 0.0000000000000000e+00  1.1234163815627571e+00 -1.8245533508083570e-03 0.0000000000000000e+00  1.0700521306572515e+00 6.6767104256292330e-03 0.0000000000000000e+00  1.1210562397365975e+00 -7.4833906977380717e-03 0.0000000000000000e+00  6.5624418552468011e-01 6.2519529996517123e-07 0.0000000000000000e+00  7.6213815665562157e-01 1.0536870569737025e-01 0.0000000000000000e+00  1.0755352176255761e+00 -5.6882658527328017e-02 0.0000000000000000e+00  1.0264391471098955e+00 1.0993424568715484e-02 0.0000000000000000e+00  1.0716253819282078e+00 -9.1798148980282556e-03 0.0000000000000000e+00  1.0622265194395979e+00 3.8426578109787835e-03 0.0000000000000000e+00  1.0786653412082787e+00 -6.7863166077059573e-03 0.0000000000000000e+00  1.0715117375433223e+00 4.9585042098971503e-04 0.0000000000000000e+00  1.0888172902118076e+00 -1.4545407409070440e-02 0.0000000000000000e+00  -3.8011581330722894e-06 5.1368168474513933e-07 0.0000000000000000e+00  -6.1870292379113434e-06 9.9730536355679419e-07 0.0000000000000000e+00  -8.7131084671815742e-06 -5.9055291108565078e-07 0.0000000000000000e+00  -7.6077676962422869e-06 -6.2432888096571369e-08 0.0000000000000000e+00  -6.7194722869474210e-06 8.4218646498217243e-08 0.0000000000000000e+00  -9.1545889662577686e-06 9.7214753443922018e-08 0.0000000000000000e+00  -1.2511236645864941e-05 -2.3876811628358755e-08 0.0000000000000000e+00  1.2503950117216449e-06 6.6886087453325514e-08 0.0000000000000000e+00  -1.0061478319277260e-05 7.8376945324317070e-08 0.0000000000000000e+00  </DataArray> 
</PointData> 
</Piece>
</UnstructuredGrid>
</VTKFile>