<?xml version="1.0"?>
<VTKFile type="UnstructuredGrid"  version="0.1"  >
<UnstructuredGrid>
<Piece  NumberOfPoints="81" NumberOfCells="128">
<Points>
<DataArray  type="Float64"  NumberOfComponents="3"  format="ascii">0 0 0  0.275 0 0  0.55 0 0  0.8250000000000001 0 0  1.1 0 0  1.375 0 0  1.65 0 0  1.925 0 0  2.2 0 0  0 0.05125 0  0.275 0.05125 0  0.55 0.05125 0  0.8250000000000001 0.05125 0  1.1 0.05125 0  1.375 0.05125 0  1.65 0.05125 0  1.925 0.05125 0  2.2 0.05125 0  0 0.1025 0  0.275 0.1025 0  0.55 0.1025 0  0.8250000000000001 0.1025 0  1.1 0.1025 0  1.375 0.1025 0  1.65 0.1025 0  1.925 0.1025 0  2.2 0.1025 0  0 0.15375 0  0.275 0.15375 0  0.55 0.15375 0  0.8250000000000001 0.15375 0  1.1 0.15375 0  1.375 0.15375 0  1.65 0.15375 0  1.925 0.15375 0  2.2 0.15375 0  0 0.205 0  0.275 0.205 0  0.55 0.205 0  0.8250000000000001 0.205 0  1.1 0.205 0  1.375 0.205 0  1.65 0.205 0  1.925 0.205 0  2.2 0.205 0  0 0.25625 0  0.275 0.25625 0  0.55 0.25625 0  0.8250000000000001 0.25625 0  1.1 0.25625 0  1.375 0.25625 0  1.65 0.25625 0  1.925 0.25625 0  2.2 0.25625 0  0 0.3075 0  0.275 0.3075 0  0.55 0.3075 0  0.8250000000000001 0.3075 0  1.1 0.3075 0  1.375 0.3075 0  1.65 0.3075 0  1.925 0.3075 0  2.2 0.3075 0  0 0.35875 0  0.275 0.35875 0  0.55 0.35875 0  0.8250000000000001 0.35875 0  1.1 0.35875 0  1.375 0.35875 0  1.65 0.35875 0  1.925 0.35875 0  2.2 0.35875 0  0 0.41 0  0.275 0.41 0  0.55 0.41 0  0.8250000000000001 0.41 0  1.1 0.41 0  1.375 0.41 0  1.65 0.41 0  1.925 0.41 0  2.2 0.41 0  </DataArray>
</Points>
<Cells>
<DataArray  type="UInt32"  Name="connectivity"  format="ascii">0 1 9  1 9 10  1 2 11  1 10 11  2 3 11  3 11 12  3 4 13  3 12 13  4 5 13  5 13 14  5 6 15  5 14 15  6 7 15  7 15 16  7 8 17  7 16 17  9 10 19  9 18 19  10 11 19  11 19 20  11 12 21  11 20 21  12 13 21  13 21 22  13 14 23  13 22 23  14 15 23  15 23 24  15 16 25  15 24 25  16 17 25  17 25 26  18 19 27  19 27 28  19 20 29  19 28 29  20 21 29  21 29 30  21 22 31  21 30 31  22 23 31  23 31 32  23 24 33  23 32 33  24 25 33  25 33 34  25 26 35  25 34 35  27 28 37  27 36 37  28 29 37  29 37 38  29 30 39  29 38 39  30 31 39  31 39 40  31 32 41  31 40 41  32 33 41  33 41 42  33 34 43  33 42 43  34 35 43  35 43 44  36 37 45  37 45 46  37 38 47  37 46 47  38 39 47  39 47 48  39 40 49  39 48 49  40 41 49  41 49 50  41 42 51  41 50 51  42 43 51  43 51 52  43 44 53  43 52 53  45 46 55  45 54 55  46 47 55  47 55 56  47 48 57  47 56 57  48 49 57  49 57 58  49 50 59  49 58 59  50 51 59  51 59 60  51 52 61  51 60 61  52 53 61  53 61 62  54 55 63  55 63 64  55 56 65  55 64 65  56 57 65  57 65 66  57 58 67  57 66 67  58 59 67  59 67 68  59 60 69  59 68 69  60 61 69  61 69 70  61 62 71  61 70 71  63 64 73  63 72 73  64 65 73  65 73 74  65 66 75  65 74 75  66 67 75  67 75 76  67 68 77  67 76 77  68 69 77  69 77 78  69 70 79  69 78 79  70 71 79  71 79 80  </DataArray>
<DataArray  type="UInt32"  Name="offsets"  format="ascii">3 6 9 12 15 18 21 24 27 30 33 36 39 42 45 48 51 54 57 60 63 66 69 72 75 78 81 84 87 90 93 96 99 102 105 108 111 114 117 120 123 126 129 132 135 138 141 144 147 150 153 156 159 162 165 168 171 174 177 180 183 186 189 192 195 198 201 204 207 210 213 216 219 222 225 228 231 234 237 240 243 246 249 252 255 258 261 264 267 270 273 276 279 282 285 288 291 294 297 300 303 306 309 312 315 318 321 324 327 330 333 336 339 342 345 348 351 354 357 360 363 366 369 372 375 378 381 384 </DataArray>
<DataArray  type="UInt8"  Name="types"  format="ascii">5 5 5 5 5 5 5 5 5 5 5 5 5 5 5 5 5 5 5 5 5 5 5 5 5 5 5 5 5 5 5 5 5 5 5 5 5 5 5 5 5 5 5 5 5 5 5 5 5 5 5 5 5 5 5 5 5 5 5 5 5 5 5 5 5 5 5 5 5 5 5 5 5 5 5 5 5 5 5 5 5 5 5 5 5 5 5 5 5 5 5 5 5 5 5 5 5 5 5 5 5 5 5 5 5 5 5 5 5 5 5 5 5 5 5 5 5 5 5 5 5 5 5 5 5 5 5 5 </DataArray>
</Cells>
<PointData  Vectors="f_16"> 
<DataArray  type="Float64"  Name="f_16"  NumberOfComponents="3" format="ascii">2.1519738448061588e-05 -5.4811630780200409e-08 0.0000000000000000e+00  -7.5087917250918954e-07 -1.0711064587561295e-07 0.0000000000000000e+00  1.8218742076488927e-06 -3.7628219206053587e-08 0.0000000000000000e+00  -9.1425953780334818e-06 -7.3801327599591034e-08 0.0000000000000000e+00  -5.0851797015678915e-06 6.3520607966833377e-08 0.0000000000000000e+00  -5.6748953048689478e-06 -6.8012501853328882e-08 0.0000000000000000e+00  -7.9195965811939931e-06 -2.0948498097749755e-07 0.0000000000000000e+00  -7.1119745965275622e-06 2.1591365586693126e-07 0.0000000000000000e+00  -4.1847987657580934e-06 9.1547235339007048e-09 0.0000000000000000e+00  6.5624734237845805e-01 6.9991816091913653e-08 0.0000000000000000e+00  6.5669828506669536e-01 1.6774846289598657e-03 0.0000000000000000e+00  7.1967508537627733e-01 -1.5168265063936976e-02 0.0000000000000000e+00  8.4521951995793609e-01 -2.7413320688463319e-02 0.0000000000000000e+00  9.9394636556388249e-01 3.1785767064993901e-04 0.0000000000000000e+00  9.6688870698489482e-01 9.3403853461734663e-03 0.0000000000000000e+00  9.8147931996500648e-01 -1.1255312699507967e-02 0.0000000000000000e+00  9.4687566586089056e-01 5.2447612773280344e-03 0.0000000000000000e+00  9.9119362273220069e-01 -1.4750476181750904e-02 0.0000000000000000e+00  1.1249841479390654e+00 4.2687330597525995e-08 0.0000000000000000e+00  1.1279033745074354e+00 4.2447770331354362e-03 0.0000000000000000e+00  1.1049145487739396e+00 -1.4865440860269362e-02 0.0000000000000000e+00  1.0808584481299777e+00 -6.1473373071424517e-02 0.0000000000000000e+00  1.1673164796195312e+00 -3.1500433434471765e-03 0.0000000000000000e+00  1.1710226176594061e+00 8.2924792826165571e-03 0.0000000000000000e+00  1.1475782432377162e+00 -7.9226484278295088e-03 0.0000000000000000e+00  1.1643890500709277e+00 1.4342981301577845e-02 0.0000000000000000e+00  1.1670281653436774e+00 -1.0151989478315622e-02 0.0000000000000000e+00  1.4062399836778032e+00 6.2894454619109166e-08 0.0000000000000000e+00  1.4047196048280648e+00 1.3413474847810611e-03 0.0000000000000000e+00  1.3698843351907912e+00 -1.1376968072951766e-02 0.0000000000000000e+00  1.2678142626499629e+00 -3.5629449937943397e-02 0.0000000000000000e+00  1.1805473438165339e+00 -4.9695757332988916e-03 0.0000000000000000e+00  1.1856156401734399e+00 1.2686444915359838e-03 0.0000000000000000e+00  1.1528932926071507e+00 -5.8674669247396130e-03 0.0000000000000000e+00  1.1821307041223108e+00 2.9618240753627864e-03 0.0000000000000000e+00  1.1749827321690753e+00 -8.6871750356838900e-03 0.0000000000000000e+00  1.4999817517215936e+00 -5.9837015051434114e-08 0.0000000000000000e+00  1.4943790899763580e+00 -1.2035168222041861e-04 0.0000000000000000e+00  1.4475681435181722e+00 -9.5622189771868630e-05 0.0000000000000000e+00  1.3537041127905047e+00 -5.0215820440316867e-05 0.0000000000000000e+00  1.1791010702103923e+00 1.6314878186392206e-06 0.0000000000000000e+00  1.1884800534920350e+00 3.6534023388740692e-06 0.0000000000000000e+00  1.1541646163037265e+00 2.2558983290987879e-04 0.0000000000000000e+00  1.1845299561291525e+00 1.4001376756849480e-04 0.0000000000000000e+00  1.1736313083838930e+00 2.2007999728761114e-05 0.0000000000000000e+00  1.4062369694048227e+00 -8.7343579953769911e-08 0.0000000000000000e+00  1.4048231410322116e+00 -1.4362531351574054e-03 0.0000000000000000e+00  1.3691489463702122e+00 1.1270128747285018e-02 0.0000000000000000e+00  1.2680812213056736e+00 3.5533521554043226e-02 0.0000000000000000e+00  1.1802244261008090e+00 4.9700343947871655e-03 0.0000000000000000e+00  1.1837845171151344e+00 -1.2464334872172597e-03 0.0000000000000000e+00  1.1542105635209945e+00 6.1946639355564947e-03 0.0000000000000000e+00  1.1820758815653414e+00 -2.9013478844781755e-03 0.0000000000000000e+00  1.1748441205459850e+00 8.5334798960191652e-03 0.0000000000000000e+00  1.1249857347123855e+00 -7.9779594888475067e-08 0.0000000000000000e+00  1.1278252417445602e+00 -4.6792546751954090e-03 0.0000000000000000e+00  1.1062574168180477e+00 1.4831124997584804e-02 0.0000000000000000e+00  1.0796713243591904e+00 6.1375669878123235e-02 0.0000000000000000e+00  1.1668740258471737e+00 3.1257389166548764e-03 0.0000000000000000e+00  1.1714713350067987e+00 -8.2699257271316041e-03 0.0000000000000000e+00  1.1459854374346798e+00 8.1206974509970397e-03 0.0000000000000000e+00  1.1654116651662811e+00 -1.4208626984597062e-02 0.0000000000000000e+00  1.1664652869971162e+00 1.0291754044712711e-02 0.0000000000000000e+00  6.5624192325959529e-01 -5.7005355753262698e-08 0.0000000000000000e+00  6.5545974784682104e-01 -1.7822063444460409e-03 0.0000000000000000e+00  7.1851565701973885e-01 1.5188706496843141e-02 0.0000000000000000e+00  8.4431619622891718e-01 2.7370823573652989e-02 0.0000000000000000e+00  9.9330185378303648e-01 -2.7715648642703751e-04 0.0000000000000000e+00  9.6542991308207582e-01 -9.3449072269561929e-03 0.0000000000000000e+00  9.8176188149167143e-01 1.1398900535635583e-02 0.0000000000000000e+00  9.4473319196059313e-01 -5.2181477338431653e-03 0.0000000000000000e+00  9.9184867264116172e-01 1.4987182702398592e-02 0.0000000000000000e+00  -6.7117484026544952e-06 -1.2894581548148141e-10 0.0000000000000000e+00  -6.7099959285866522e-06 2.4262512201977329e-08 0.0000000000000000e+00  -4.0195141415937842e-06 3.0752587394963458e-08 0.0000000000000000e+00  -6.2549988573408670e-06 8.5735116136936048e-08 0.0000000000000000e+00  -4.3214416220278820e-06 -3.6812134467725296e-08 0.0000000000000000e+00  -8.0797563607126107e-06 -1.3982970630754832e-08 0.0000000000000000e+00  -9.1670789156968232e-06 1.6048930430982328e-07 0.0000000000000000e+00  1.5345617576212478e-06 -1.8014654662741149e-07 0.0000000000000000e+00  -1.0966766667594357e-05 -3.4033876505707071e-08 0.0000000000000000e+00  </DataArray> 
</PointData> 
</Piece>
</UnstructuredGrid>
</VTKFile>