<?xml version="1.0"?>
<VTKFile type="UnstructuredGrid"  version="0.1"  >
<UnstructuredGrid>
<Piece  NumberOfPoints="81" NumberOfCells="128">
<Points>
<DataArray  type="Float64"  NumberOfComponents="3"  format="ascii">0 0 0  0.275 0 0  0.55 0 0  0.8250000000000001 0 0  1.1 0 0  1.375 0 0  1.65 0 0  1.925 0 0  2.2 0 0  0 0.05125 0  0.275 0.05125 0  0.55 0.05125 0  0.8250000000000001 0.05125 0  1.1 0.05125 0  1.375 0.05125 0  1.65 0.05125 0  1.925 0.05125 0  2.2 0.05125 0  0 0.1025 0  0.275 0.1025 0  0.55 0.1025 0  0.8250000000000001 0.1025 0  1.1 0.1025 0  1.375 0.1025 0  1.65 0.1025 0  1.925 0.1025 0  2.2 0.1025 0  0 0.15375 0  0.275 0.15375 0  0.55 0.15375 0  0.8250000000000001 0.15375 0  1.1 0.15375 0  1.375 0.15375 0  1.65 0.15375 0  1.925 0.15375 0  2.2 0.15375 0  0 0.205 0  0.275 0.205 0  0.55 0.205 0  0.8250000000000001 0.205 0  1.1 0.205 0  1.375 0.205 0  1.65 0.205 0  1.925 0.205 0  2.2 0.205 0  0 0.25625 0  0.275 0.25625 0  0.55 0.25625 0  0.8250000000000001 0.25625 0  1.1 0.25625 0  1.375 0.25625 0  1.65 0.25625 0  1.925 0.25625 0  2.2 0.25625 0  0 0.3075 0  0.275 0.3075 0  0.55 0.3075 0  0.8250000000000001 0.3075 0  1.1 0.3075 0  1.375 0.3075 0  1.65 0.3075 0  1.925 0.3075 0  2.2 0.3075 0  0 0.35875 0  0.275 0.35875 0  0.55 0.35875 0  0.8250000000000001 0.35875 0  1.1 0.35875 0  1.375 0.35875 0  1.65 0.35875 0  1.925 0.35875 0  2.2 0.35875 0  0 0.41 0  0.275 0.41 0  0.55 0.41 0  0.8250000000000001 0.41 0  1.1 0.41 0  1.375 0.41 0  1.65 0.41 0  1.925 0.41 0  2.2 0.41 0  </DataArray>
</Points>
<Cells>
<DataArray  type="UInt32"  Name="connectivity"  format="ascii">0 1 9  1 9 10  1 2 11  1 10 11  2 3 11  3 11 12  3 4 13  3 12 13  4 5 13  5 13 14  5 6 15  5 14 15  6 7 15  7 15 16  7 8 17  7 16 17  9 10 19  9 18 19  10 11 19  11 19 20  11 12 21  11 20 21  12 13 21  13 21 22  13 14 23  13 22 23  14 15 23  15 23 24  15 16 25  15 24 25  16 17 25  17 25 26  18 19 27  19 27 28  19 20 29  19 28 29  20 21 29  21 29 30  21 22 31  21 30 31  22 23 31  23 31 32  23 24 33  23 32 33  24 25 33  25 33 34  25 26 35  25 34 35  27 28 37  27 36 37  28 29 37  29 37 38  29 30 39  29 38 39  30 31 39  31 39 40  31 32 41  31 40 41  32 33 41  33 41 42  33 34 43  33 42 43  34 35 43  35 43 44  36 37 45  37 45 46  37 38 47  37 46 47  38 39 47  39 47 48  39 40 49  39 48 49  40 41 49  41 49 50  41 42 51  41 50 51  42 43 51  43 51 52  43 44 53  43 52 53  45 46 55  45 54 55  46 47 55  47 55 56  47 48 57  47 56 57  48 49 57  49 57 58  49 50 59  49 58 59  50 51 59  51 59 60  51 52 61  51 60 61  52 53 61  53 61 62  54 55 63  55 63 64  55 56 65  55 64 65  56 57 65  57 65 66  57 58 67  57 66 67  58 59 67  59 67 68  59 60 69  59 68 69  60 61 69  61 69 70  61 62 71  61 70 71  63 64 73  63 72 73  64 65 73  65 73 74  65 66 75  65 74 75  66 67 75  67 75 76  67 68 77  67 76 77  68 69 77  69 77 78  69 70 79  69 78 79  70 71 79  71 79 80  </DataArray>
<DataArray  type="UInt32"  Name="offsets"  format="ascii">3 6 9 12 15 18 21 24 27 30 33 36 39 42 45 48 51 54 57 60 63 66 69 72 75 78 81 84 87 90 93 96 99 102 105 108 111 114 117 120 123 126 129 132 135 138 141 144 147 150 153 156 159 162 165 168 171 174 177 180 183 186 189 192 195 198 201 204 207 210 213 216 219 222 225 228 231 234 237 240 243 246 249 252 255 258 261 264 267 270 273 276 279 282 285 288 291 294 297 300 303 306 309 312 315 318 321 324 327 330 333 336 339 342 345 348 351 354 357 360 363 366 369 372 375 378 381 384 </DataArray>
<DataArray  type="UInt8"  Name="types"  format="ascii">5 5 5 5 5 5 5 5 5 5 5 5 5 5 5 5 5 5 5 5 5 5 5 5 5 5 5 5 5 5 5 5 5 5 5 5 5 5 5 5 5 5 5 5 5 5 5 5 5 5 5 5 5 5 5 5 5 5 5 5 5 5 5 5 5 5 5 5 5 5 5 5 5 5 5 5 5 5 5 5 5 5 5 5 5 5 5 5 5 5 5 5 5 5 5 5 5 5 5 5 5 5 5 5 5 5 5 5 5 5 5 5 5 5 5 5 5 5 5 5 5 5 5 5 5 5 5 5 </DataArray>
</Cells>
<PointData  Vectors="f_16"> 
<DataArray  type="Float64"  Name="f_16"  NumberOfComponents="3" format="ascii">2.0498139668449467e-05 -3.9878675890328125e-09 0.0000000000000000e+00  -1.2025912710662343e-06 -3.7327347865755870e-10 0.0000000000000000e+00  1.0400603395290020e-06 1.5688382985042614e-09 0.0000000000000000e+00  -8.2760079798694508e-06 -3.6840458421920973e-09 0.0000000000000000e+00  -2.9126977256587610e-06 -1.6724638031371935e-09 0.0000000000000000e+00  -4.7670372559981966e-06 9.4616217596303014e-09 0.0000000000000000e+00  -5.2490555786461539e-06 8.1413329264182514e-09 0.0000000000000000e+00  -5.8994763053625851e-06 1.8254296397708568e-08 0.0000000000000000e+00  -1.2371962216880444e-06 2.1230821534325548e-08 0.0000000000000000e+00  6.5624703277979335e-01 -2.3727019057975266e-09 0.0000000000000000e+00  6.5727787198284793e-01 -1.3724494554070193e-04 0.0000000000000000e+00  6.5779417732458700e-01 2.1132454597117806e-04 0.0000000000000000e+00  6.5805750652218620e-01 3.1522549766478633e-05 0.0000000000000000e+00  6.5826256557939478e-01 6.9646468454803354e-05 0.0000000000000000e+00  6.5884178702272467e-01 1.3013240919234137e-06 0.0000000000000000e+00  6.6081134007285136e-01 -7.1337969958102266e-04 0.0000000000000000e+00  6.7367385603356111e-01 -2.5234316140382348e-03 0.0000000000000000e+00  7.0123026182541681e-01 -4.7054128737716912e-03 0.0000000000000000e+00  1.1249841292643654e+00 -1.7120225212195785e-09 0.0000000000000000e+00  1.1253439901741991e+00 -6.2713727306312045e-04 0.0000000000000000e+00  1.1240445346330101e+00 -1.4629917604241439e-04 0.0000000000000000e+00  1.1265131715432273e+00 -1.0833660742712435e-04 0.0000000000000000e+00  1.1257715312740733e+00 2.0899876132372136e-04 0.0000000000000000e+00  1.1246778305333274e+00 9.8144395716418984e-05 0.0000000000000000e+00  1.1250317681316941e+00 -1.1273470857625350e-03 0.0000000000000000e+00  1.1249896438463671e+00 -4.2888705403581213e-03 0.0000000000000000e+00  1.1274566731919005e+00 -8.8286840429150290e-03 0.0000000000000000e+00  1.4062395250403981e+00 -1.6958533207856218e-09 0.0000000000000000e+00  1.4053737267959969e+00 -1.8844302788657369e-04 0.0000000000000000e+00  1.4072035463300936e+00 -1.2904265990188951e-04 0.0000000000000000e+00  1.4053453356412160e+00 -3.2789981736095535e-05 0.0000000000000000e+00  1.4067592026129485e+00 1.4617821898434187e-04 0.0000000000000000e+00  1.4051164307767730e+00 -1.3902331640481278e-04 0.0000000000000000e+00  1.4054082430313641e+00 -3.4215224697587977e-04 0.0000000000000000e+00  1.3966919584861317e+00 -2.7469712224764348e-03 0.0000000000000000e+00  1.3743771228424513e+00 -6.5392393573062250e-03 0.0000000000000000e+00  1.4999818728666938e+00 5.6005233841034986e-10 0.0000000000000000e+00  1.4999761336931750e+00 -1.5397599361346986e-04 0.0000000000000000e+00  1.4996174919154184e+00 -1.7271195598744630e-04 0.0000000000000000e+00  1.5006711692947363e+00 -1.0827874678211246e-04 0.0000000000000000e+00  1.4961816645226433e+00 -3.0807840079838049e-05 0.0000000000000000e+00  1.4989843593790446e+00 1.2808107841206549e-04 0.0000000000000000e+00  1.4978532888271798e+00 2.8247358642935450e-04 0.0000000000000000e+00  1.4874293361883899e+00 3.8925318915305216e-04 0.0000000000000000e+00  1.4578634711282823e+00 1.3778695791536287e-04 0.0000000000000000e+00  1.4062361639247218e+00 2.5932505905169563e-09 0.0000000000000000e+00  1.4052826010345489e+00 -2.6267421297878749e-05 0.0000000000000000e+00  1.4063087020085043e+00 -2.4769416585375132e-04 0.0000000000000000e+00  1.4056123997641190e+00 -2.0891401658315633e-04 0.0000000000000000e+00  1.4061314044276179e+00 -1.9941038817071802e-04 0.0000000000000000e+00  1.4028539401205995e+00 3.6437337347827232e-04 0.0000000000000000e+00  1.4065414897716191e+00 7.7299178542321854e-04 0.0000000000000000e+00  1.3964677628844251e+00 3.1504927676745302e-03 0.0000000000000000e+00  1.3738450115168102e+00 6.5395176184839254e-03 0.0000000000000000e+00  1.1249860371436546e+00 3.3165832598310440e-09 0.0000000000000000e+00  1.1250751110738639e+00 1.9968977058571106e-04 0.0000000000000000e+00  1.1250768063478198e+00 -7.4177353690562018e-05 0.0000000000000000e+00  1.1245987727963267e+00 -7.4773083855683760e-05 0.0000000000000000e+00  1.1243650398774421e+00 -1.8444958729944936e-04 0.0000000000000000e+00  1.1245323113476187e+00 1.2206130888225054e-04 0.0000000000000000e+00  1.1229011345323494e+00 1.4913637093061365e-03 0.0000000000000000e+00  1.1258346844519795e+00 4.8143748824632428e-03 0.0000000000000000e+00  1.1270641123114871e+00 9.1800749213761038e-03 0.0000000000000000e+00  6.5624147106017383e-01 2.0933634446087558e-09 0.0000000000000000e+00  6.5602707476313815e-01 3.1654383736643202e-05 0.0000000000000000e+00  6.5597561129501203e-01 -2.8002218549912436e-04 0.0000000000000000e+00  6.5611459758241375e-01 -7.8063811081357053e-05 0.0000000000000000e+00  6.5630309244989038e-01 -9.7616861648651418e-05 0.0000000000000000e+00  6.5625954890372906e-01 8.0369210342238489e-05 0.0000000000000000e+00  6.6085679675645870e-01 9.3809617501279855e-04 0.0000000000000000e+00  6.7219240085137832e-01 2.6783009105297399e-03 0.0000000000000000e+00  7.0298861866062090e-01 5.0924314595646083e-03 0.0000000000000000e+00  -7.0173249265467188e-06 -1.3639046973255419e-09 0.0000000000000000e+00  -7.2296247371158814e-06 -5.4635220112269932e-10 0.0000000000000000e+00  -4.6129513805903023e-06 -2.4862269389754661e-09 0.0000000000000000e+00  -6.2777666484285508e-06 4.4080799797727882e-09 0.0000000000000000e+00  -2.2649540851824519e-06 8.4802337124986880e-09 0.0000000000000000e+00  -6.9317658957703095e-06 -1.3344456741325330e-08 0.0000000000000000e+00  -7.0436643715342699e-06 -1.3971102833221531e-09 0.0000000000000000e+00  6.0086531369863553e-07 1.8631524568228090e-08 0.0000000000000000e+00  -1.0175554088038016e-05 -5.8057296814590047e-08 0.0000000000000000e+00  </DataArray> 
</PointData> 
</Piece>
</UnstructuredGrid>
</VTKFile>