<?xml version="1.0"?>
<VTKFile type="UnstructuredGrid"  version="0.1"  >
<UnstructuredGrid>
<Piece  NumberOfPoints="81" NumberOfCells="128">
<Points>
<DataArray  type="Float64"  NumberOfComponents="3"  format="ascii">0 0 0  0.275 0 0  0.55 0 0  0.8250000000000001 0 0  1.1 0 0  1.375 0 0  1.65 0 0  1.925 0 0  2.2 0 0  0 0.05125 0  0.275 0.05125 0  0.55 0.05125 0  0.8250000000000001 0.05125 0  1.1 0.05125 0  1.375 0.05125 0  1.65 0.05125 0  1.925 0.05125 0  2.2 0.05125 0  0 0.1025 0  0.275 0.1025 0  0.55 0.1025 0  0.8250000000000001 0.1025 0  1.1 0.1025 0  1.375 0.1025 0  1.65 0.1025 0  1.925 0.1025 0  2.2 0.1025 0  0 0.15375 0  0.275 0.15375 0  0.55 0.15375 0  0.8250000000000001 0.15375 0  1.1 0.15375 0  1.375 0.15375 0  1.65 0.15375 0  1.925 0.15375 0  2.2 0.15375 0  0 0.205 0  0.275 0.205 0  0.55 0.205 0  0.8250000000000001 0.205 0  1.1 0.205 0  1.375 0.205 0  1.65 0.205 0  1.925 0.205 0  2.2 0.205 0  0 0.25625 0  0.275 0.25625 0  0.55 0.25625 0  0.8250000000000001 0.25625 0  1.1 0.25625 0  1.375 0.25625 0  1.65 0.25625 0  1.925 0.25625 0  2.2 0.25625 0  0 0.3075 0  0.275 0.3075 0  0.55 0.3075 0  0.8250000000000001 0.3075 0  1.1 0.3075 0  1.375 0.3075 0  1.65 0.3075 0  1.925 0.3075 0  2.2 0.3075 0  0 0.35875 0  0.275 0.35875 0  0.55 0.35875 0  0.8250000000000001 0.35875 0  1.1 0.35875 0  1.375 0.35875 0  1.65 0.35875 0  1.925 0.35875 0  2.2 0.35875 0  0 0.41 0  0.275 0.41 0  0.55 0.41 0  0.8250000000000001 0.41 0  1.1 0.41 0  1.375 0.41 0  1.65 0.41 0  1.925 0.41 0  2.2 0.41 0  </DataArray>
</Points>
<Cells>
<DataArray  type="UInt32"  Name="connectivity"  format="ascii">0 1 9  1 9 10  1 2 11  1 10 11  2 3 11  3 11 12  3 4 13  3 12 13  4 5 13  5 13 14  5 6 15  5 14 15  6 7 15  7 15 16  7 8 17  7 16 17  9 10 19  9 18 19  10 11 19  11 19 20  11 12 21  11 20 21  12 13 21  13 21 22  13 14 23  13 22 23  14 15 23  15 23 24  15 16 25  15 24 25  16 17 25  17 25 26  18 19 27  19 27 28  19 20 29  19 28 29  20 21 29  21 29 30  21 22 31  21 30 31  22 23 31  23 31 32  23 24 33  23 32 33  24 25 33  25 33 34  25 26 35  25 34 35  27 28 37  27 36 37  28 29 37  29 37 38  29 30 39  29 38 39  30 31 39  31 39 40  31 32 41  31 40 41  32 33 41  33 41 42  33 34 43  33 42 43  34 35 43  35 43 44  36 37 45  37 45 46  37 38 47  37 46 47  38 39 47  39 47 48  39 40 49  39 48 49  40 41 49  41 49 50  41 42 51  41 50 51  42 43 51  43 51 52  43 44 53  43 52 53  45 46 55  45 54 55  46 47 55  47 55 56  47 48 57  47 56 57  48 49 57  49 57 58  49 50 59  49 58 59  50 51 59  51 59 60  51 52 61  51 60 61  52 53 61  53 61 62  54 55 63  55 63 64  55 56 65  55 64 65  56 57 65  57 65 66  57 58 67  57 66 67  58 59 67  59 67 68  59 60 69  59 68 69  60 61 69  61 69 70  61 62 71  61 70 71  63 64 73  63 72 73  64 65 73  65 73 74  65 66 75  65 74 75  66 67 75  67 75 76  67 68 77  67 76 77  68 69 77  69 77 78  69 70 79  69 78 79  70 71 79  71 79 80  </DataArray>
<DataArray  type="UInt32"  Name="offsets"  format="ascii">3 6 9 12 15 18 21 24 27 30 33 36 39 42 45 48 51 54 57 60 63 66 69 72 75 78 81 84 87 90 93 96 99 102 105 108 111 114 117 120 123 126 129 132 135 138 141 144 147 150 153 156 159 162 165 168 171 174 177 180 183 186 189 192 195 198 201 204 207 210 213 216 219 222 225 228 231 234 237 240 243 246 249 252 255 258 261 264 267 270 273 276 279 282 285 288 291 294 297 300 303 306 309 312 315 318 321 324 327 330 333 336 339 342 345 348 351 354 357 360 363 366 369 372 375 378 381 384 </DataArray>
<DataArray  type="UInt8"  Name="types"  format="ascii">5 5 5 5 5 5 5 5 5 5 5 5 5 5 5 5 5 5 5 5 5 5 5 5 5 5 5 5 5 5 5 5 5 5 5 5 5 5 5 5 5 5 5 5 5 5 5 5 5 5 5 5 5 5 5 5 5 5 5 5 5 5 5 5 5 5 5 5 5 5 5 5 5 5 5 5 5 5 5 5 5 5 5 5 5 5 5 5 5 5 5 5 5 5 5 5 5 5 5 5 5 5 5 5 5 5 5 5 5 5 5 5 5 5 5 5 5 5 5 5 5 5 5 5 5 5 5 5 </DataArray>
</Cells>
<PointData  Vectors="f_16"> 
<DataArray  type="Float64"  Name="f_16"  NumberOfComponents="3" format="ascii">2.0494556510780693e-05 -4.6604134913330575e-09 0.0000000000000000e+00  -1.1997436809609976e-06 1.3157331163725630e-10 0.0000000000000000e+00  1.0401640804876190e-06 -1.9992667471416348e-10 0.0000000000000000e+00  -8.2912150650783737e-06 -7.8725500840819455e-10 0.0000000000000000e+00  -2.9280863148175931e-06 -1.9612241579772294e-09 0.0000000000000000e+00  -4.7701039472169814e-06 4.3758315456254808e-09 0.0000000000000000e+00  -5.2079994093854023e-06 5.9266794841937476e-09 0.0000000000000000e+00  -5.8913859345254984e-06 8.1520502995638743e-09 0.0000000000000000e+00  -1.1548233796472494e-06 6.2412589899759194e-09 0.0000000000000000e+00  6.5624702721122852e-01 -1.5404882314695433e-09 0.0000000000000000e+00  6.5701406285501485e-01 -1.1587704112498147e-04 0.0000000000000000e+00  6.5833913515405484e-01 1.3158163620095615e-04 0.0000000000000000e+00  6.5838063514338718e-01 -7.3002537160039705e-05 0.0000000000000000e+00  6.5869101979368339e-01 1.7995895221299722e-05 0.0000000000000000e+00  6.5871769437782890e-01 -2.0199589021797839e-05 0.0000000000000000e+00  6.5852553605677422e-01 -5.0590483141474475e-05 0.0000000000000000e+00  6.6051632465193633e-01 -5.0585291908468964e-04 0.0000000000000000e+00  6.7179567455523903e-01 -2.7759738357089735e-03 0.0000000000000000e+00  1.1249841106502627e+00 -3.9686888996517876e-10 0.0000000000000000e+00  1.1254918765770594e+00 -6.2312707972862486e-04 0.0000000000000000e+00  1.1239677552758605e+00 -2.2834789285922086e-04 0.0000000000000000e+00  1.1267952738643994e+00 -1.3333428527228557e-04 0.0000000000000000e+00  1.1256278676421250e+00 1.4424227144082874e-04 0.0000000000000000e+00  1.1252222126467615e+00 1.7629463417156974e-04 0.0000000000000000e+00  1.1251017373160292e+00 -4.9994535896293049e-05 0.0000000000000000e+00  1.1251665902524326e+00 -5.3977551476231539e-04 0.0000000000000000e+00  1.1247940030950048e+00 -3.7280735510509880e-03 0.0000000000000000e+00  1.4062394918229670e+00 -1.1753097847377481e-09 0.0000000000000000e+00  1.4054869788013902e+00 -1.9557289160962552e-04 0.0000000000000000e+00  1.4071261504456543e+00 -1.8824277556891939e-04 0.0000000000000000e+00  1.4049981567963929e+00 -9.3953784831465997e-05 0.0000000000000000e+00  1.4068073098270555e+00 7.4561354505051375e-06 0.0000000000000000e+00  1.4057640716967157e+00 -2.7903187942758570e-06 0.0000000000000000e+00  1.4059147275178248e+00 8.8220761051163948e-05 0.0000000000000000e+00  1.4048245465967353e+00 -4.4329292473595450e-04 0.0000000000000000e+00  1.3967921711501694e+00 -2.5963712957200813e-03 0.0000000000000000e+00  1.4999818529178315e+00 6.9103586302006897e-10 0.0000000000000000e+00  1.5000322848322929e+00 -1.5624376436107796e-04 0.0000000000000000e+00  1.4992140949480024e+00 -1.7903915955445480e-04 0.0000000000000000e+00  1.4999937581040037e+00 -1.1501241908944338e-04 0.0000000000000000e+00  1.4967073522069012e+00 -4.3954938561570585e-05 0.0000000000000000e+00  1.4989691999012777e+00 1.1307981161813323e-04 0.0000000000000000e+00  1.4989113608795297e+00 2.9538960800044525e-04 0.0000000000000000e+00  1.4971821188097296e+00 4.5662190432685216e-04 0.0000000000000000e+00  1.4868017468614365e+00 2.6001710222783658e-04 0.0000000000000000e+00  1.4062361277592050e+00 1.7504581993106409e-09 0.0000000000000000e+00  1.4053951707724504e+00 -2.0892132955470800e-05 0.0000000000000000e+00  1.4062202378564559e+00 -1.9307167541990426e-04 0.0000000000000000e+00  1.4052510073019686e+00 -1.5851597318679438e-04 0.0000000000000000e+00  1.4061401918874301e+00 -8.5139775380981589e-05 0.0000000000000000e+00  1.4034425834470430e+00 2.0711279197648501e-04 0.0000000000000000e+00  1.4069554101878039e+00 3.2226115888150334e-04 0.0000000000000000e+00  1.4045646401911818e+00 9.7143338024287349e-04 0.0000000000000000e+00  1.3963917496387825e+00 2.8634127980028535e-03 0.0000000000000000e+00  1.1249860218699186e+00 1.6906642443862740e-09 0.0000000000000000e+00  1.1252200799669974e+00 1.9466317084013618e-04 0.0000000000000000e+00  1.1249909172917063e+00 3.3301128948050011e-06 0.0000000000000000e+00  1.1248557465498608e+00 -5.9793649399155817e-05 0.0000000000000000e+00  1.1241613293003505e+00 -1.3224956956251152e-04 0.0000000000000000e+00  1.1249539178112269e+00 2.8780429867303844e-05 0.0000000000000000e+00  1.1227978371265999e+00 4.2708921720540006e-04 0.0000000000000000e+00  1.1259653787542621e+00 1.1663710929676267e-03 0.0000000000000000e+00  1.1248110897903518e+00 4.2472906371918799e-03 0.0000000000000000e+00  6.5624144847912735e-01 1.0391077441366031e-09 0.0000000000000000e+00  6.5576799831125099e-01 1.0869321224125497e-05 0.0000000000000000e+00  6.5651091552156804e-01 -2.0252897030095652e-04 0.0000000000000000e+00  6.5641362421140004e-01 2.3273713480456714e-05 0.0000000000000000e+00  6.5667815289358522e-01 -5.0244001204724561e-05 0.0000000000000000e+00  6.5602274471235944e-01 1.0294289806695959e-04 0.0000000000000000e+00  6.5838336728512870e-01 2.7681309912893352e-04 0.0000000000000000e+00  6.5904117322098421e-01 6.9287260519275363e-04 0.0000000000000000e+00  6.7400645336289422e-01 3.2257361219360432e-03 0.0000000000000000e+00  -7.0231787624488408e-06 -6.9388002964349396e-10 0.0000000000000000e+00  -7.2258281424470294e-06 -8.7891134403487090e-10 0.0000000000000000e+00  -4.6090776980752926e-06 -1.2729940946337322e-09 0.0000000000000000e+00  -6.2774910533581290e-06 1.9532602419971459e-09 0.0000000000000000e+00  -2.2672741268143852e-06 3.2950478797736765e-09 0.0000000000000000e+00  -6.9287120593799130e-06 -6.6547475936408154e-09 0.0000000000000000e+00  -7.0794915844095266e-06 -7.7802106015869805e-10 0.0000000000000000e+00  5.3333177949582060e-07 7.0183148218946269e-09 0.0000000000000000e+00  -1.0193895994283950e-05 -2.2198551161654995e-08 0.0000000000000000e+00  </DataArray> 
</PointData> 
</Piece>
</UnstructuredGrid>
</VTKFile>