<?xml version="1.0"?>
<VTKFile type="UnstructuredGrid"  version="0.1"  >
<UnstructuredGrid>
<Piece  NumberOfPoints="81" NumberOfCells="128">
<Points>
<DataArray  type="Float64"  NumberOfComponents="3"  format="ascii">0 0 0  0.275 0 0  0.55 0 0  0.8250000000000001 0 0  1.1 0 0  1.375 0 0  1.65 0 0  1.925 0 0  2.2 0 0  0 0.05125 0  0.275 0.05125 0  0.55 0.05125 0  0.8250000000000001 0.05125 0  1.1 0.05125 0  1.375 0.05125 0  1.65 0.05125 0  1.925 0.05125 0  2.2 0.05125 0  0 0.1025 0  0.275 0.1025 0  0.55 0.1025 0  0.8250000000000001 0.1025 0  1.1 0.1025 0  1.375 0.1025 0  1.65 0.1025 0  1.925 0.1025 0  2.2 0.1025 0  0 0.15375 0  0.275 0.15375 0  0.55 0.15375 0  0.8250000000000001 0.15375 0  1.1 0.15375 0  1.375 0.15375 0  1.65 0.15375 0  1.925 0.15375 0  2.2 0.15375 0  0 0.205 0  0.275 0.205 0  0.55 0.205 0  0.8250000000000001 0.205 0  1.1 0.205 0  1.375 0.205 0  1.65 0.205 0  1.925 0.205 0  2.2 0.205 0  0 0.25625 0  0.275 0.25625 0  0.55 0.25625 0  0.8250000000000001 0.25625 0  1.1 0.25625 0  1.375 0.25625 0  1.65 0.25625 0  1.925 0.25625 0  2.2 0.25625 0  0 0.3075 0  0.275 0.3075 0  0.55 0.3075 0  0.8250000000000001 0.3075 0  1.1 0.3075 0  1.375 0.3075 0  1.65 0.3075 0  1.925 0.3075 0  2.2 0.3075 0  0 0.35875 0  0.275 0.35875 0  0.55 0.35875 0  0.8250000000000001 0.35875 0  1.1 0.35875 0  1.375 0.35875 0  1.65 0.35875 0  1.925 0.35875 0  2.2 0.35875 0  0 0.41 0  0.275 0.41 0  0.55 0.41 0  0.8250000000000001 0.41 0  1.1 0.41 0  1.375 0.41 0  1.65 0.41 0  1.925 0.41 0  2.2 0.41 0  </DataArray>
</Points>
<Cells>
<DataArray  type="UInt32"  Name="connectivity"  format="ascii">0 1 9  1 9 10  1 2 11  1 10 11  2 3 11  3 11 12  3 4 13  3 12 13  4 5 13  5 13 14  5 6 15  5 14 15  6 7 15  7 15 16  7 8 17  7 16 17  9 10 19  9 18 19  10 11 19  11 19 20  11 12 21  11 20 21  12 13 21  13 21 22  13 14 23  13 22 23  14 15 23  15 23 24  15 16 25  15 24 25  16 17 25  17 25 26  18 19 27  19 27 28  19 20 29  19 28 29  20 21 29  21 29 30  21 22 31  21 30 31  22 23 31  23 31 32  23 24 33  23 32 33  24 25 33  25 33 34  25 26 35  25 34 35  27 28 37  27 36 37  28 29 37  29 37 38  29 30 39  29 38 39  30 31 39  31 39 40  31 32 41  31 40 41  32 33 41  33 41 42  33 34 43  33 42 43  34 35 43  35 43 44  36 37 45  37 45 46  37 38 47  37 46 47  38 39 47  39 47 48  39 40 49  39 48 49  40 41 49  41 49 50  41 42 51  41 50 51  42 43 51  43 51 52  43 44 53  43 52 53  45 46 55  45 54 55  46 47 55  47 55 56  47 48 57  47 56 57  48 49 57  49 57 58  49 50 59  49 58 59  50 51 59  51 59 60  51 52 61  51 60 61  52 53 61  53 61 62  54 55 63  55 63 64  55 56 65  55 64 65  56 57 65  57 65 66  57 58 67  57 66 67  58 59 67  59 67 68  59 60 69  59 68 69  60 61 69  61 69 70  61 62 71  61 70 71  63 64 73  63 72 73  64 65 73  65 73 74  65 66 75  65 74 75  66 67 75  67 75 76  67 68 77  67 76 77  68 69 77  69 77 78  69 70 79  69 78 79  70 71 79  71 79 80  </DataArray>
<DataArray  type="UInt32"  Name="offsets"  format="ascii">3 6 9 12 15 18 21 24 27 30 33 36 39 42 45 48 51 54 57 60 63 66 69 72 75 78 81 84 87 90 93 96 99 102 105 108 111 114 117 120 123 126 129 132 135 138 141 144 147 150 153 156 159 162 165 168 171 174 177 180 183 186 189 192 195 198 201 204 207 210 213 216 219 222 225 228 231 234 237 240 243 246 249 252 255 258 261 264 267 270 273 276 279 282 285 288 291 294 297 300 303 306 309 312 315 318 321 324 327 330 333 336 339 342 345 348 351 354 357 360 363 366 369 372 375 378 381 384 </DataArray>
<DataArray  type="UInt8"  Name="types"  format="ascii">5 5 5 5 5 5 5 5 5 5 5 5 5 5 5 5 5 5 5 5 5 5 5 5 5 5 5 5 5 5 5 5 5 5 5 5 5 5 5 5 5 5 5 5 5 5 5 5 5 5 5 5 5 5 5 5 5 5 5 5 5 5 5 5 5 5 5 5 5 5 5 5 5 5 5 5 5 5 5 5 5 5 5 5 5 5 5 5 5 5 5 5 5 5 5 5 5 5 5 5 5 5 5 5 5 5 5 5 5 5 5 5 5 5 5 5 5 5 5 5 5 5 5 5 5 5 5 5 </DataArray>
</Cells>
<PointData  Vectors="f_16"> 
<DataArray  type="Float64"  Name="f_16"  NumberOfComponents="3" format="ascii">2.0489715508966667e-05 -4.4093607079577604e-09 0.0000000000000000e+00  -1.2012873706381847e-06 -2.5868784549585426e-11 0.0000000000000000e+00  1.0438186918942298e-06 -9.8892923096335615e-10 0.0000000000000000e+00  -8.2927572777797289e-06 1.0059643220528775e-09 0.0000000000000000e+00  -2.9406080892638396e-06 5.1672621145516106e-12 0.0000000000000000e+00  -4.7736168026439247e-06 -8.4452210404489153e-10 0.0000000000000000e+00  -5.1846083493086181e-06 -3.9116451819768594e-10 0.0000000000000000e+00  -5.9224595979602443e-06 -4.3209210251426619e-10 0.0000000000000000e+00  -1.2397031014904589e-06 1.9465516750901798e-10 0.0000000000000000e+00  6.5624702208770169e-01 -2.6594004381206608e-10 0.0000000000000000e+00  6.5712383600439483e-01 -1.2744072498273773e-04 0.0000000000000000e+00  6.5837210106221089e-01 1.3420306680306964e-04 0.0000000000000000e+00  6.5820436892468825e-01 -3.2529761857558688e-05 0.0000000000000000e+00  6.5877302584382369e-01 -2.0661021984269068e-05 0.0000000000000000e+00  6.5863247423584148e-01 3.7355855051896397e-05 0.0000000000000000e+00  6.5836159879557266e-01 1.5413060468503028e-06 0.0000000000000000e+00  6.5750684540139526e-01 2.7451413470493031e-05 0.0000000000000000e+00  6.5751515471887456e-01 -4.3632446302879702e-05 0.0000000000000000e+00  1.1249841009855779e+00 9.7567780366770892e-10 0.0000000000000000e+00  1.1255467549451292e+00 -6.1888253135140554e-04 0.0000000000000000e+00  1.1238767480003151e+00 -1.5392251300077337e-04 0.0000000000000000e+00  1.1264589830032010e+00 -1.3423360251377600e-04 0.0000000000000000e+00  1.1256172387466745e+00 9.3527746326598132e-06 0.0000000000000000e+00  1.1252597729791536e+00 1.8470704272451641e-04 0.0000000000000000e+00  1.1251990310978517e+00 1.4968559273864488e-04 0.0000000000000000e+00  1.1246457223961042e+00 2.1035767009249570e-04 0.0000000000000000e+00  1.1241708981863763e+00 1.4383128732274608e-04 0.0000000000000000e+00  1.4062394803173059e+00 -1.1826562401311506e-10 0.0000000000000000e+00  1.4055790260355574e+00 -1.6183955401777487e-04 0.0000000000000000e+00  1.4068338808045171e+00 -1.4455678844036549e-04 0.0000000000000000e+00  1.4047320059032022e+00 -1.8713547967268395e-04 0.0000000000000000e+00  1.4072229317072955e+00 -1.7921343471912605e-04 0.0000000000000000e+00  1.4061106148864453e+00 1.0166219946125988e-04 0.0000000000000000e+00  1.4057759931398894e+00 1.5787082521302021e-04 0.0000000000000000e+00  1.4056786954129463e+00 2.0951858773778499e-04 0.0000000000000000e+00  1.4055893712279386e+00 1.3043887351967597e-04 0.0000000000000000e+00  1.4999818420645408e+00 8.8516598051259259e-10 0.0000000000000000e+00  1.5000599705529905e+00 -1.5753740026852454e-04 0.0000000000000000e+00  1.4988842848261408e+00 -1.8403403086305549e-04 0.0000000000000000e+00  1.4995943470718087e+00 -1.2689343664895367e-04 0.0000000000000000e+00  1.4973624674501269e+00 -6.6146548264139004e-05 0.0000000000000000e+00  1.4993107566076955e+00 8.2571451678751333e-05 0.0000000000000000e+00  1.4985315982559808e+00 2.8133905683374271e-04 0.0000000000000000e+00  1.4981519796891545e+00 4.5727982653061429e-04 0.0000000000000000e+00  1.4982013836975998e+00 3.4083279617296621e-04 0.0000000000000000e+00  1.4062361155650402e+00 6.7653634123892802e-10 0.0000000000000000e+00  1.4054864410549393e+00 -5.7153377813337066e-05 0.0000000000000000e+00  1.4059301864241669e+00 -2.3939526342869029e-04 0.0000000000000000e+00  1.4049593879892093e+00 -8.8407473131154137e-05 0.0000000000000000e+00  1.4064851421227507e+00 5.9934006305032470e-05 0.0000000000000000e+00  1.4036734339225929e+00 5.0281058321732672e-05 0.0000000000000000e+00  1.4066515482676247e+00 2.0535866964468234e-04 0.0000000000000000e+00  1.4051940696847478e+00 3.5172827046955440e-04 0.0000000000000000e+00  1.4050598858435521e+00 3.5383775081431319e-04 0.0000000000000000e+00  1.1249860143576818e+00 -3.9764699362449715e-11 0.0000000000000000e+00  1.1252780473163393e+00 1.8927594904327149e-04 0.0000000000000000e+00  1.1248829635293287e+00 -7.6350181034004789e-05 0.0000000000000000e+00  1.1244804923866656e+00 -7.2194432232491708e-05 0.0000000000000000e+00  1.1240381426085317e+00 -2.3950767161474567e-05 0.0000000000000000e+00  1.1247769601968924e+00 -1.5705967682957558e-05 0.0000000000000000e+00  1.1225598739626443e+00 2.0839349090770500e-04 0.0000000000000000e+00  1.1250287910627150e+00 4.3408814565440586e-04 0.0000000000000000e+00  1.1240270506452450e+00 5.1548529262933850e-04 0.0000000000000000e+00  6.5624143948209646e-01 -3.4336764625899441e-10 0.0000000000000000e+00  6.5587877497262892e-01 2.1638039485508516e-05 0.0000000000000000e+00  6.5653745639012828e-01 -2.0534663490291458e-04 0.0000000000000000e+00  6.5618719886979548e-01 -2.1098971682731862e-05 0.0000000000000000e+00  6.5664208013001613e-01 -2.0202686402085036e-05 0.0000000000000000e+00  6.5569968902841091e-01 3.6415972481040218e-05 0.0000000000000000e+00  6.5786905718945854e-01 2.1935958836614487e-04 0.0000000000000000e+00  6.5571089966863194e-01 1.7401576638267783e-04 0.0000000000000000e+00  6.5979343618357178e-01 5.7172046427144655e-04 0.0000000000000000e+00  -7.0284277729033978e-06 -8.4040956505617706e-10 0.0000000000000000e+00  -7.2265537933641648e-06 -4.9000068765779347e-10 0.0000000000000000e+00  -4.6028433506712568e-06 -2.0678862557362454e-10 0.0000000000000000e+00  -6.2741910489044666e-06 7.9165628223211711e-10 0.0000000000000000e+00  -2.2756698454005304e-06 1.1008135113897333e-09 0.0000000000000000e+00  -6.9280399648590880e-06 -1.3184041795863147e-09 0.0000000000000000e+00  -7.0864135264331893e-06 -4.2128048009753947e-10 0.0000000000000000e+00  4.7817638864002089e-07 3.0723877856380441e-10 0.0000000000000000e+00  -1.0283917372660339e-05 -4.5036000939277011e-09 0.0000000000000000e+00  </DataArray> 
</PointData> 
</Piece>
</UnstructuredGrid>
</VTKFile>