<?xml version="1.0"?>
<VTKFile type="UnstructuredGrid"  version="0.1"  >
<UnstructuredGrid>
<Piece  NumberOfPoints="81" NumberOfCells="128">
<Points>
<DataArray  type="Float64"  NumberOfComponents="3"  format="ascii">0 0 0  0.275 0 0  0.55 0 0  0.8250000000000001 0 0  1.1 0 0  1.375 0 0  1.65 0 0  1.925 0 0  2.2 0 0  0 0.05125 0  0.275 0.05125 0  0.55 0.05125 0  0.8250000000000001 0.05125 0  1.1 0.05125 0  1.375 0.05125 0  1.65 0.05125 0  1.925 0.05125 0  2.2 0.05125 0  0 0.1025 0  0.275 0.1025 0  0.55 0.1025 0  0.8250000000000001 0.1025 0  1.1 0.1025 0  1.375 0.1025 0  1.65 0.1025 0  1.925 0.1025 0  2.2 0.1025 0  0 0.15375 0  0.275 0.15375 0  0.55 0.15375 0  0.8250000000000001 0.15375 0  1.1 0.15375 0  1.375 0.15375 0  1.65 0.15375 0  1.925 0.15375 0  2.2 0.15375 0  0 0.205 0  0.275 0.205 0  0.55 0.205 0  0.8250000000000001 0.205 0  1.1 0.205 0  1.375 0.205 0  1.65 0.205 0  1.925 0.205 0  2.2 0.205 0  0 0.25625 0  0.275 0.25625 0  0.55 0.25625 0  0.8250000000000001 0.25625 0  1.1 0.25625 0  1.375 0.25625 0  1.65 0.25625 0  1.925 0.25625 0  2.2 0.25625 0  0 0.3075 0  0.275 0.3075 0  0.55 0.3075 0  0.8250000000000001 0.3075 0  1.1 0.3075 0  1.375 0.3075 0  1.65 0.3075 0  1.925 0.3075 0  2.2 0.3075 0  0 0.35875 0  0.275 0.35875 0  0.55 0.35875 0  0.8250000000000001 0.35875 0  1.1 0.35875 0  1.375 0.35875 0  1.65 0.35875 0  1.925 0.35875 0  2.2 0.35875 0  0 0.41 0  0.275 0.41 0  0.55 0.41 0  0.8250000000000001 0.41 0  1.1 0.41 0  1.375 0.41 0  1.65 0.41 0  1.925 0.41 0  2.2 0.41 0  </DataArray>
</Points>
<Cells>
<DataArray  type="UInt32"  Name="connectivity"  format="ascii">0 1 9  1 9 10  1 2 11  1 10 11  2 3 11  3 11 12  3 4 13  3 12 13  4 5 13  5 13 14  5 6 15  5 14 15  6 7 15  7 15 16  7 8 17  7 16 17  9 10 19  9 18 19  10 11 19  11 19 20  11 12 21  11 20 21  12 13 21  13 21 22  13 14 23  13 22 23  14 15 23  15 23 24  15 16 25  15 24 25  16 17 25  17 25 26  18 19 27  19 27 28  19 20 29  19 28 29  20 21 29  21 29 30  21 22 31  21 30 31  22 23 31  23 31 32  23 24 33  23 32 33  24 25 33  25 33 34  25 26 35  25 34 35  27 28 37  27 36 37  28 29 37  29 37 38  29 30 39  29 38 39  30 31 39  31 39 40  31 32 41  31 40 41  32 33 41  33 41 42  33 34 43  33 42 43  34 35 43  35 43 44  36 37 45  37 45 46  37 38 47  37 46 47  38 39 47  39 47 48  39 40 49  39 48 49  40 41 49  41 49 50  41 42 51  41 50 51  42 43 51  43 51 52  43 44 53  43 52 53  45 46 55  45 54 55  46 47 55  47 55 56  47 48 57  47 56 57  48 49 57  49 57 58  49 50 59  49 58 59  50 51 59  51 59 60  51 52 61  51 60 61  52 53 61  53 61 62  54 55 63  55 63 64  55 56 65  55 64 65  56 57 65  57 65 66  57 58 67  57 66 67  58 59 67  59 67 68  59 60 69  59 68 69  60 61 69  61 69 70  61 62 71  61 70 71  63 64 73  63 72 73  64 65 73  65 73 74  65 66 75  65 74 75  66 67 75  67 75 76  67 68 77  67 76 77  68 69 77  69 77 78  69 70 79  69 78 79  70 71 79  71 79 80  </DataArray>
<DataArray  type="UInt32"  Name="offsets"  format="ascii">3 6 9 12 15 18 21 24 27 30 33 36 39 42 45 48 51 54 57 60 63 66 69 72 75 78 81 84 87 90 93 96 99 102 105 108 111 114 117 120 123 126 129 132 135 138 141 144 147 150 153 156 159 162 165 168 171 174 177 180 183 186 189 192 195 198 201 204 207 210 213 216 219 222 225 228 231 234 237 240 243 246 249 252 255 258 261 264 267 270 273 276 279 282 285 288 291 294 297 300 303 306 309 312 315 318 321 324 327 330 333 336 339 342 345 348 351 354 357 360 363 366 369 372 375 378 381 384 </DataArray>
<DataArray  type="UInt8"  Name="types"  format="ascii">5 5 5 5 5 5 5 5 5 5 5 5 5 5 5 5 5 5 5 5 5 5 5 5 5 5 5 5 5 5 5 5 5 5 5 5 5 5 5 5 5 5 5 5 5 5 5 5 5 5 5 5 5 5 5 5 5 5 5 5 5 5 5 5 5 5 5 5 5 5 5 5 5 5 5 5 5 5 5 5 5 5 5 5 5 5 5 5 5 5 5 5 5 5 5 5 5 5 5 5 5 5 5 5 5 5 5 5 5 5 5 5 5 5 5 5 5 5 5 5 5 5 5 5 5 5 5 5 </DataArray>
</Cells>
<PointData  Vectors="f_16"> 
<DataArray  type="Float64"  Name="f_16"  NumberOfComponents="3" format="ascii">2.0488920841205622e-05 -4.2931965832774146e-09 0.0000000000000000e+00  -1.2011467197094852e-06 -9.3883379517879605e-11 0.0000000000000000e+00  1.0446403113144444e-06 -9.7988493519795165e-10 0.0000000000000000e+00  -8.2931482556985486e-06 1.1364051187859836e-09 0.0000000000000000e+00  -2.9417574508552559e-06 -6.7024307890885824e-12 0.0000000000000000e+00  -4.7730959976705128e-06 -1.0358003766144043e-09 0.0000000000000000e+00  -5.1833042814187110e-06 -2.5863557623330849e-10 0.0000000000000000e+00  -5.9236791346436218e-06 -2.6095396127315812e-10 0.0000000000000000e+00  -1.2429325260756560e-06 2.5158359190111839e-10 0.0000000000000000e+00  6.5624702175900762e-01 -1.7666652848854914e-10 0.0000000000000000e+00  6.5716135183457869e-01 -1.3004848797881164e-04 0.0000000000000000e+00  6.5836911406246224e-01 1.3604957552699619e-04 0.0000000000000000e+00  6.5822218006160627e-01 -3.3744198426934776e-05 0.0000000000000000e+00  6.5876672049282059e-01 -2.2345254973719832e-05 0.0000000000000000e+00  6.5862508499670358e-01 4.1705234854980259e-05 0.0000000000000000e+00  6.5835557641898546e-01 4.2419569215089060e-06 0.0000000000000000e+00  6.5747611666499550e-01 2.8011418200250213e-05 0.0000000000000000e+00  6.5742184880932508e-01 -3.2602493766589855e-05 0.0000000000000000e+00  1.1249840999205989e+00 8.0327824164588062e-10 0.0000000000000000e+00  1.1255759138773342e+00 -6.2153233433094482e-04 0.0000000000000000e+00  1.1238584737367079e+00 -1.5064912177199612e-04 0.0000000000000000e+00  1.1264699078764735e+00 -1.4872301594179592e-04 0.0000000000000000e+00  1.1256285107557908e+00 8.3067529519177610e-06 0.0000000000000000e+00  1.1252734383466465e+00 1.9902600874198019e-04 0.0000000000000000e+00  1.1251795198675556e+00 1.4718233426216898e-04 0.0000000000000000e+00  1.1246237832208477e+00 2.0435825407854851e-04 0.0000000000000000e+00  1.1241196861057474e+00 1.8802199623670857e-04 0.0000000000000000e+00  1.4062394797386781e+00 -2.6124790038703885e-10 0.0000000000000000e+00  1.4055623275779854e+00 -1.5305504306739961e-04 0.0000000000000000e+00  1.4067919304629219e+00 -1.4866276821204558e-04 0.0000000000000000e+00  1.4047650898683455e+00 -1.9708102421172886e-04 0.0000000000000000e+00  1.4072692038817982e+00 -1.7038616971953686e-04 0.0000000000000000e+00  1.4060560659640380e+00 1.1705965539374712e-04 0.0000000000000000e+00  1.4056835624395010e+00 1.5498486993459240e-04 0.0000000000000000e+00  1.4056144500300056e+00 2.1466054533984049e-04 0.0000000000000000e+00  1.4055753469228467e+00 1.7361767387281482e-04 0.0000000000000000e+00  1.4999818406407430e+00 8.8453543289444480e-10 0.0000000000000000e+00  1.5000438670180067e+00 -1.5646861944593435e-04 0.0000000000000000e+00  1.4988591458747653e+00 -1.8247317312581758e-04 0.0000000000000000e+00  1.4996754205186973e+00 -1.2575816422806291e-04 0.0000000000000000e+00  1.4974151884357374e+00 -6.3009164777615197e-05 0.0000000000000000e+00  1.4992055354688574e+00 9.0043826671847124e-05 0.0000000000000000e+00  1.4984350458125748e+00 2.9142803862824610e-04 0.0000000000000000e+00  1.4981020807090240e+00 4.6871080537928036e-04 0.0000000000000000e+00  1.4981945472884648e+00 3.5343071552130416e-04 0.0000000000000000e+00  1.4062361149277125e+00 8.1286438675838965e-10 0.0000000000000000e+00  1.4054711319992945e+00 -6.4855397495559825e-05 0.0000000000000000e+00  1.4058917041811927e+00 -2.3331066120902837e-04 0.0000000000000000e+00  1.4049958154847240e+00 -7.5355775786196960e-05 0.0000000000000000e+00  1.4065379421161499e+00 5.6315635108306812e-05 0.0000000000000000e+00  1.4036414968710875e+00 4.7983677842822539e-05 0.0000000000000000e+00  1.4065980427790927e+00 2.2751459894397360e-04 0.0000000000000000e+00  1.4051927189814397e+00 3.6732456196433242e-04 0.0000000000000000e+00  1.4051393961273226e+00 3.3297819086134235e-04 0.0000000000000000e+00  1.1249860133316152e+00 1.2760092778837768e-10 0.0000000000000000e+00  1.1253061951723402e+00 1.9260911581095845e-04 0.0000000000000000e+00  1.1248693783672525e+00 -7.7796921971484467e-05 0.0000000000000000e+00  1.1244998911859103e+00 -5.5505727054044083e-05 0.0000000000000000e+00  1.1240677863078774e+00 -1.8348115692397849e-05 0.0000000000000000e+00  1.1248281459474365e+00 -2.1166592843350268e-05 0.0000000000000000e+00  1.1226144187825775e+00 2.2300343045972095e-04 0.0000000000000000e+00  1.1251242327654165e+00 4.5358945827039717e-04 0.0000000000000000e+00  1.1241485579969399e+00 4.8457178050214500e-04 0.0000000000000000e+00  6.5624143903923093e-01 -4.4468238126935462e-10 0.0000000000000000e+00  6.5591563911936057e-01 2.4287364261149730e-05 0.0000000000000000e+00  6.5653758320960587e-01 -2.0653651229477082e-04 0.0000000000000000e+00  6.5621531157253710e-01 -1.8791492800676195e-05 0.0000000000000000e+00  6.5665720451355436e-01 -1.6842195871247155e-05 0.0000000000000000e+00  6.5573802199893394e-01 3.5115012118884460e-05 0.0000000000000000e+00  6.5794235305140625e-01 2.2119605179081675e-04 0.0000000000000000e+00  6.5580202649960051e-01 1.7791854592442801e-04 0.0000000000000000e+00  6.5986129392275572e-01 5.6363353735336755e-04 0.0000000000000000e+00  -7.0291063105512766e-06 -9.7969248243625374e-10 0.0000000000000000e+00  -7.2264568474122374e-06 -4.4309866999304343e-10 0.0000000000000000e+00  -4.6019857315741030e-06 -2.2079459467403706e-10 0.0000000000000000e+00  -6.2746067591642995e-06 6.3825580666899255e-10 0.0000000000000000e+00  -2.2767802158087025e-06 1.1922477865506030e-09 0.0000000000000000e+00  -6.9279124637159167e-06 -1.1608459493123655e-09 0.0000000000000000e+00  -7.0858357100714829e-06 -6.5350702933388392e-10 0.0000000000000000e+00  4.7685891698858971e-07 -1.5175864015167600e-11 0.0000000000000000e+00  -1.0288281471818718e-05 -4.5405673623931592e-09 0.0000000000000000e+00  </DataArray> 
</PointData> 
</Piece>
</UnstructuredGrid>
</VTKFile>