<?xml version="1.0"?>
<VTKFile type="UnstructuredGrid"  version="0.1"  >
<UnstructuredGrid>
<Piece  NumberOfPoints="81" NumberOfCells="128">
<Points>
<DataArray  type="Float64"  NumberOfComponents="3"  format="ascii">0 0 0  0.275 0 0  0.55 0 0  0.8250000000000001 0 0  1.1 0 0  1.375 0 0  1.65 0 0  1.925 0 0  2.2 0 0  0 0.05125 0  0.275 0.05125 0  0.55 0.05125 0  0.8250000000000001 0.05125 0  1.1 0.05125 0  1.375 0.05125 0  1.65 0.05125 0  1.925 0.05125 0  2.2 0.05125 0  0 0.1025 0  0.275 0.1025 0  0.55 0.1025 0  0.8250000000000001 0.1025 0  1.1 0.1025 0  1.375 0.1025 0  1.65 0.1025 0  1.925 0.1025 0  2.2 0.1025 0  0 0.15375 0  0.275 0.15375 0  0.55 0.15375 0  0.8250000000000001 0.15375 0  1.1 0.15375 0  1.375 0.15375 0  1.65 0.15375 0  1.925 0.15375 0  2.2 0.15375 0  0 0.205 0  0.275 0.205 0  0.55 0.205 0  0.8250000000000001 0.205 0  1.1 0.205 0  1.375 0.205 0  1.65 0.205 0  1.925 0.205 0  2.2 0.205 0  0 0.25625 0  0.275 0.25625 0  0.55 0.25625 0  0.8250000000000001 0.25625 0  1.1 0.25625 0  1.375 0.25625 0  1.65 0.25625 0  1.925 0.25625 0  2.2 0.25625 0  0 0.3075 0  0.275 0.3075 0  0.55 0.3075 0  0.8250000000000001 0.3075 0  1.1 0.3075 0  1.375 0.3075 0  1.65 0.3075 0  1.925 0.3075 0  2.2 0.3075 0  0 0.35875 0  0.275 0.35875 0  0.55 0.35875 0  0.8250000000000001 0.35875 0  1.1 0.35875 0  1.375 0.35875 0  1.65 0.35875 0  1.925 0.35875 0  2.2 0.35875 0  0 0.41 0  0.275 0.41 0  0.55 0.41 0  0.8250000000000001 0.41 0  1.1 0.41 0  1.375 0.41 0  1.65 0.41 0  1.925 0.41 0  2.2 0.41 0  </DataArray>
</Points>
<Cells>
<DataArray  type="UInt32"  Name="connectivity"  format="ascii">0 1 9  1 9 10  1 2 11  1 10 11  2 3 11  3 11 12  3 4 13  3 12 13  4 5 13  5 13 14  5 6 15  5 14 15  6 7 15  7 15 16  7 8 17  7 16 17  9 10 19  9 18 19  10 11 19  11 19 20  11 12 21  11 20 21  12 13 21  13 21 22  13 14 23  13 22 23  14 15 23  15 23 24  15 16 25  15 24 25  16 17 25  17 25 26  18 19 27  19 27 28  19 20 29  19 28 29  20 21 29  21 29 30  21 22 31  21 30 31  22 23 31  23 31 32  23 24 33  23 32 33  24 25 33  25 33 34  25 26 35  25 34 35  27 28 37  27 36 37  28 29 37  29 37 38  29 30 39  29 38 39  30 31 39  31 39 40  31 32 41  31 40 41  32 33 41  33 41 42  33 34 43  33 42 43  34 35 43  35 43 44  36 37 45  37 45 46  37 38 47  37 46 47  38 39 47  39 47 48  39 40 49  39 48 49  40 41 49  41 49 50  41 42 51  41 50 51  42 43 51  43 51 52  43 44 53  43 52 53  45 46 55  45 54 55  46 47 55  47 55 56  47 48 57  47 56 57  48 49 57  49 57 58  49 50 59  49 58 59  50 51 59  51 59 60  51 52 61  51 60 61  52 53 61  53 61 62  54 55 63  55 63 64  55 56 65  55 64 65  56 57 65  57 65 66  57 58 67  57 66 67  58 59 67  59 67 68  59 60 69  59 68 69  60 61 69  61 69 70  61 62 71  61 70 71  63 64 73  63 72 73  64 65 73  65 73 74  65 66 75  65 74 75  66 67 75  67 75 76  67 68 77  67 76 77  68 69 77  69 77 78  69 70 79  69 78 79  70 71 79  71 79 80  </DataArray>
<DataArray  type="UInt32"  Name="offsets"  format="ascii">3 6 9 12 15 18 21 24 27 30 33 36 39 42 45 48 51 54 57 60 63 66 69 72 75 78 81 84 87 90 93 96 99 102 105 108 111 114 117 120 123 126 129 132 135 138 141 144 147 150 153 156 159 162 165 168 171 174 177 180 183 186 189 192 195 198 201 204 207 210 213 216 219 222 225 228 231 234 237 240 243 246 249 252 255 258 261 264 267 270 273 276 279 282 285 288 291 294 297 300 303 306 309 312 315 318 321 324 327 330 333 336 339 342 345 348 351 354 357 360 363 366 369 372 375 378 381 384 </DataArray>
<DataArray  type="UInt8"  Name="types"  format="ascii">5 5 5 5 5 5 5 5 5 5 5 5 5 5 5 5 5 5 5 5 5 5 5 5 5 5 5 5 5 5 5 5 5 5 5 5 5 5 5 5 5 5 5 5 5 5 5 5 5 5 5 5 5 5 5 5 5 5 5 5 5 5 5 5 5 5 5 5 5 5 5 5 5 5 5 5 5 5 5 5 5 5 5 5 5 5 5 5 5 5 5 5 5 5 5 5 5 5 5 5 5 5 5 5 5 5 5 5 5 5 5 5 5 5 5 5 5 5 5 5 5 5 5 5 5 5 5 5 </DataArray>
</Cells>
<PointData  Vectors="f_16"> 
<DataArray  type="Float64"  Name="f_16"  NumberOfComponents="3" format="ascii">2.0491692950400190e-05 -4.4936225980177651e-09 0.0000000000000000e+00  -1.2006867493791549e-06 4.3330678938155808e-11 0.0000000000000000e+00  1.0419388038172360e-06 -5.6438676160494483e-10 0.0000000000000000e+00  -8.2938671086457974e-06 4.7932858047493694e-10 0.0000000000000000e+00  -2.9375407086975483e-06 -4.3020101191598188e-10 0.0000000000000000e+00  -4.7727088869966591e-06 -1.2955760872087090e-10 0.0000000000000000e+00  -5.1872718419213915e-06 1.9985727175223578e-11 0.0000000000000000e+00  -5.9207510773508669e-06 -1.0911439727302253e-09 0.0000000000000000e+00  -1.2312255989342274e-06 1.5717568621279684e-10 0.0000000000000000e+00  6.5624702354051712e-01 -7.9290866927754570e-10 0.0000000000000000e+00  6.5719395490396082e-01 -1.2325980406273346e-04 0.0000000000000000e+00  6.5843257209905059e-01 1.2968868644020560e-04 0.0000000000000000e+00  6.5827786292451418e-01 -2.7395555461205123e-05 0.0000000000000000e+00  6.5896728703748098e-01 -2.0252912806324330e-05 0.0000000000000000e+00  6.5870527335352902e-01 3.0693411269976238e-05 0.0000000000000000e+00  6.5847589997967937e-01 4.0268103983308392e-06 0.0000000000000000e+00  6.5733314970618806e-01 6.7074079411618217e-06 0.0000000000000000e+00  6.5766513214919720e-01 -1.5360965403159540e-04 0.0000000000000000e+00  1.1249841026448146e+00 4.3356411708678770e-10 0.0000000000000000e+00  1.1256391286337992e+00 -6.2347348524423177e-04 0.0000000000000000e+00  1.1238998021228139e+00 -1.7567239250750285e-04 0.0000000000000000e+00  1.1266458312032752e+00 -1.3388276265559684e-04 0.0000000000000000e+00  1.1256696245735052e+00 3.3145699254999249e-05 0.0000000000000000e+00  1.1253138335026589e+00 1.5887821506075929e-04 0.0000000000000000e+00  1.1251453141263164e+00 1.6426202271725265e-04 0.0000000000000000e+00  1.1246292072321589e+00 1.9534697348473471e-04 0.0000000000000000e+00  1.1240384773265157e+00 6.4788885680220723e-05 0.0000000000000000e+00  1.4062394817059336e+00 -3.6809473176610246e-10 0.0000000000000000e+00  1.4055679698756021e+00 -1.7303290377281350e-04 0.0000000000000000e+00  1.4069575623846482e+00 -1.7293879813635034e-04 0.0000000000000000e+00  1.4048086950629612e+00 -1.5854911036525262e-04 0.0000000000000000e+00  1.4070682483000507e+00 -1.4415734181444549e-04 0.0000000000000000e+00  1.4058651241912223e+00 7.1171590120434709e-05 0.0000000000000000e+00  1.4058828975292355e+00 1.8885811091544027e-04 0.0000000000000000e+00  1.4057693437783463e+00 2.5930638300033062e-04 0.0000000000000000e+00  1.4053259931136604e+00 5.0737357942393755e-05 0.0000000000000000e+00  1.4999818445243018e+00 8.1761666886489693e-10 0.0000000000000000e+00  1.5000806707763996e+00 -1.5623084463883713e-04 0.0000000000000000e+00  1.4990245534884052e+00 -1.8270002777039939e-04 0.0000000000000000e+00  1.4996632099869185e+00 -1.2338838946857902e-04 0.0000000000000000e+00  1.4970708413058091e+00 -5.5593142175410199e-05 0.0000000000000000e+00  1.4990200973477925e+00 9.7514922113727974e-05 0.0000000000000000e+00  1.4987099283496348e+00 2.9657028990530079e-04 0.0000000000000000e+00  1.4983327684413954e+00 4.7112482731018023e-04 0.0000000000000000e+00  1.4979691588053368e+00 3.4968115180269825e-04 0.0000000000000000e+00  1.4062361170811166e+00 8.8310396139822975e-10 0.0000000000000000e+00  1.4054772652893568e+00 -4.4436130866544014e-05 0.0000000000000000e+00  1.4060507476911848e+00 -2.1122143691835858e-04 0.0000000000000000e+00  1.4050435313894289e+00 -1.0943852499226867e-04 0.0000000000000000e+00  1.4063550401823743e+00 4.3277643289363224e-05 0.0000000000000000e+00  1.4034787593070643e+00 1.0775752304674290e-04 0.0000000000000000e+00  1.4068375258958941e+00 2.0708913548102352e-04 0.0000000000000000e+00  1.4054061056265386e+00 3.2471508070346051e-04 0.0000000000000000e+00  1.4049515154458299e+00 4.4275299889331472e-04 0.0000000000000000e+00  1.1249860160748175e+00 4.6461808732244414e-10 0.0000000000000000e+00  1.1253688492372498e+00 1.9535734681762175e-04 0.0000000000000000e+00  1.1249130623054970e+00 -5.2087635127818466e-05 0.0000000000000000e+00  1.1246769273521919e+00 -6.8219801068552372e-05 0.0000000000000000e+00  1.1241328801883401e+00 -3.6119397448624695e-05 0.0000000000000000e+00  1.1249170528247250e+00 2.8004118564133864e-05 0.0000000000000000e+00  1.1226642852066560e+00 2.1352473158726449e-04 0.0000000000000000e+00  1.1252339273960454e+00 4.6270356768043637e-04 0.0000000000000000e+00  1.1241757381444004e+00 5.9850618479893197e-04 0.0000000000000000e+00  6.5624144043889565e-01 1.3030890449793918e-10 0.0000000000000000e+00  6.5594864071826431e-01 1.7961680080971172e-05 0.0000000000000000e+00  6.5660340466652645e-01 -2.0003015130962658e-04 0.0000000000000000e+00  6.5628062240972296e-01 -2.4312302745730575e-05 0.0000000000000000e+00  6.5688057260831889e-01 -1.6275269822070766e-05 0.0000000000000000e+00  6.5586915598919637e-01 4.8629906662330952e-05 0.0000000000000000e+00  6.5814269969443062e-01 2.2340962411296637e-04 0.0000000000000000e+00  6.5575589278215340e-01 1.9820416478386153e-04 0.0000000000000000e+00  6.6017090169968096e-01 6.7557152413611073e-04 0.0000000000000000e+00  -7.0267438638228929e-06 -8.0555456522347643e-10 0.0000000000000000e+00  -7.2260856698059533e-06 -5.8657651797760830e-10 0.0000000000000000e+00  -4.6046752094745251e-06 -5.4781600437082395e-10 0.0000000000000000e+00  -6.2754841332714108e-06 1.1644579025444327e-09 0.0000000000000000e+00  -2.2718549320989790e-06 1.4130039397098963e-09 0.0000000000000000e+00  -6.9275651009672197e-06 -2.1290078509217708e-09 0.0000000000000000e+00  -7.0904153290705408e-06 -6.8053108309308285e-10 0.0000000000000000e+00  4.7942515928994034e-07 1.3763192668536687e-09 0.0000000000000000e+00  -1.0279220001680908e-05 -4.7053735101036486e-09 0.0000000000000000e+00  </DataArray> 
</PointData> 
</Piece>
</UnstructuredGrid>
</VTKFile>