<?xml version="1.0"?>
<VTKFile type="UnstructuredGrid"  version="0.1"  >
<UnstructuredGrid>
<Piece  NumberOfPoints="81" NumberOfCells="128">
<Points>
<DataArray  type="Float64"  NumberOfComponents="3"  format="ascii">0 0 0  0.275 0 0  0.55 0 0  0.8250000000000001 0 0  1.1 0 0  1.375 0 0  1.65 0 0  1.925 0 0  2.2 0 0  0 0.05125 0  0.275 0.05125 0  0.55 0.05125 0  0.8250000000000001 0.05125 0  1.1 0.05125 0  1.375 0.05125 0  1.65 0.05125 0  1.925 0.05125 0  2.2 0.05125 0  0 0.1025 0  0.275 0.1025 0  0.55 0.1025 0  0.8250000000000001 0.1025 0  1.1 0.1025 0  1.375 0.1025 0  1.65 0.1025 0  1.925 0.1025 0  2.2 0.1025 0  0 0.15375 0  0.275 0.15375 0  0.55 0.15375 0  0.8250000000000001 0.15375 0  1.1 0.15375 0  1.375 0.15375 0  1.65 0.15375 0  1.925 0.15375 0  2.2 0.15375 0  0 0.205 0  0.275 0.205 0  0.55 0.205 0  0.8250000000000001 0.205 0  1.1 0.205 0  1.375 0.205 0  1.65 0.205 0  1.925 0.205 0  2.2 0.205 0  0 0.25625 0  0.275 0.25625 0  0.55 0.25625 0  0.8250000000000001 0.25625 0  1.1 0.25625 0  1.375 0.25625 0  1.65 0.25625 0  1.925 0.25625 0  2.2 0.25625 0  0 0.3075 0  0.275 0.3075 0  0.55 0.3075 0  0.8250000000000001 0.3075 0  1.1 0.3075 0  1.375 0.3075 0  1.65 0.3075 0  1.925 0.3075 0  2.2 0.3075 0  0 0.35875 0  0.275 0.35875 0  0.55 0.35875 0  0.8250000000000001 0.35875 0  1.1 0.35875 0  1.375 0.35875 0  1.65 0.35875 0  1.925 0.35875 0  2.2 0.35875 0  0 0.41 0  0.275 0.41 0  0.55 0.41 0  0.8250000000000001 0.41 0  1.1 0.41 0  1.375 0.41 0  1.65 0.41 0  1.925 0.41 0  2.2 0.41 0  </DataArray>
</Points>
<Cells>
<DataArray  type="UInt32"  Name="connectivity"  format="ascii">0 1 9  1 9 10  1 2 11  1 10 11  2 3 11  3 11 12  3 4 13  3 12 13  4 5 13  5 13 14  5 6 15  5 14 15  6 7 15  7 15 16  7 8 17  7 16 17  9 10 19  9 18 19  10 11 19  11 19 20  11 12 21  11 20 21  12 13 21  13 21 22  13 14 23  13 22 23  14 15 23  15 23 24  15 16 25  15 24 25  16 17 25  17 25 26  18 19 27  19 27 28  19 20 29  19 28 29  20 21 29  21 29 30  21 22 31  21 30 31  22 23 31  23 31 32  23 24 33  23 32 33  24 25 33  25 33 34  25 26 35  25 34 35  27 28 37  27 36 37  28 29 37  29 37 38  29 30 39  29 38 39  30 31 39  31 39 40  31 32 41  31 40 41  32 33 41  33 41 42  33 34 43  33 42 43  34 35 43  35 43 44  36 37 45  37 45 46  37 38 47  37 46 47  38 39 47  39 47 48  39 40 49  39 48 49  40 41 49  41 49 50  41 42 51  41 50 51  42 43 51  43 51 52  43 44 53  43 52 53  45 46 55  45 54 55  46 47 55  47 55 56  47 48 57  47 56 57  48 49 57  49 57 58  49 50 59  49 58 59  50 51 59  51 59 60  51 52 61  51 60 61  52 53 61  53 61 62  54 55 63  55 63 64  55 56 65  55 64 65  56 57 65  57 65 66  57 58 67  57 66 67  58 59 67  59 67 68  59 60 69  59 68 69  60 61 69  61 69 70  61 62 71  61 70 71  63 64 73  63 72 73  64 65 73  65 73 74  65 66 75  65 74 75  66 67 75  67 75 76  67 68 77  67 76 77  68 69 77  69 77 78  69 70 79  69 78 79  70 71 79  71 79 80  </DataArray>
<DataArray  type="UInt32"  Name="offsets"  format="ascii">3 6 9 12 15 18 21 24 27 30 33 36 39 42 45 48 51 54 57 60 63 66 69 72 75 78 81 84 87 90 93 96 99 102 105 108 111 114 117 120 123 126 129 132 135 138 141 144 147 150 153 156 159 162 165 168 171 174 177 180 183 186 189 192 195 198 201 204 207 210 213 216 219 222 225 228 231 234 237 240 243 246 249 252 255 258 261 264 267 270 273 276 279 282 285 288 291 294 297 300 303 306 309 312 315 318 321 324 327 330 333 336 339 342 345 348 351 354 357 360 363 366 369 372 375 378 381 384 </DataArray>
<DataArray  type="UInt8"  Name="types"  format="ascii">5 5 5 5 5 5 5 5 5 5 5 5 5 5 5 5 5 5 5 5 5 5 5 5 5 5 5 5 5 5 5 5 5 5 5 5 5 5 5 5 5 5 5 5 5 5 5 5 5 5 5 5 5 5 5 5 5 5 5 5 5 5 5 5 5 5 5 5 5 5 5 5 5 5 5 5 5 5 5 5 5 5 5 5 5 5 5 5 5 5 5 5 5 5 5 5 5 5 5 5 5 5 5 5 5 5 5 5 5 5 5 5 5 5 5 5 5 5 5 5 5 5 5 5 5 5 5 5 </DataArray>
</Cells>
<PointData  Vectors="f_16"> 
<DataArray  type="Float64"  Name="f_16"  NumberOfComponents="3" format="ascii">2.0489965783726921e-05 -4.4181358851951153e-09 0.0000000000000000e+00  -1.2012667461367985e-06 -1.4913438132308532e-11 0.0000000000000000e+00  1.0434385213761014e-06 -9.4407300977103227e-10 0.0000000000000000e+00  -8.2927346820948351e-06 9.2366098883306194e-10 0.0000000000000000e+00  -2.9400173634431844e-06 -3.4348468871774266e-11 0.0000000000000000e+00  -4.7734661697043728e-06 -7.3528360408653535e-10 0.0000000000000000e+00  -5.1850157687720518e-06 -3.6992252578319733e-10 0.0000000000000000e+00  -5.9222858318620212e-06 -5.6219030277994703e-10 0.0000000000000000e+00  -1.2389511225010834e-06 1.7142848765467916e-10 0.0000000000000000e+00  6.5624702225363218e-01 -3.3976318047238943e-10 0.0000000000000000e+00  6.5712420893815882e-01 -1.2749292227973009e-04 0.0000000000000000e+00  6.5836972164055430e-01 1.3345872877739207e-04 0.0000000000000000e+00  6.5820211806584161e-01 -3.2760387623319914e-05 0.0000000000000000e+00  6.5876796842255192e-01 -1.9293093779704332e-05 0.0000000000000000e+00  6.5862635619932508e-01 3.8631303911384004e-05 0.0000000000000000e+00  6.5834500942102370e-01 3.6551296501956165e-07 0.0000000000000000e+00  6.5750175663901222e-01 2.8502728096610441e-05 0.0000000000000000e+00  6.5749976555911005e-01 -4.2428311917881112e-05 0.0000000000000000e+00  1.1249841012924071e+00 9.4093195760413280e-10 0.0000000000000000e+00  1.1255467170466347e+00 -6.2017897921466301e-04 0.0000000000000000e+00  1.1238766148893744e+00 -1.5623765278146055e-04 0.0000000000000000e+00  1.1264633741820269e+00 -1.3195515815187753e-04 0.0000000000000000e+00  1.1256125908535473e+00 1.3561205909155235e-05 0.0000000000000000e+00  1.1252441944969709e+00 1.8425838269540951e-04 0.0000000000000000e+00  1.1251921772536080e+00 1.4719650268413191e-04 0.0000000000000000e+00  1.1246441204442494e+00 2.1367695388178136e-04 0.0000000000000000e+00  1.1241490063937896e+00 1.4549417914661947e-04 0.0000000000000000e+00  1.4062394805389595e+00 -1.1533237119374106e-10 0.0000000000000000e+00  1.4055785308813824e+00 -1.6402429496019882e-04 0.0000000000000000e+00  1.4068518519377129e+00 -1.4594181019458483e-04 0.0000000000000000e+00  1.4047390268190849e+00 -1.8130509403994346e-04 0.0000000000000000e+00  1.4071902359091775e+00 -1.7584292673669872e-04 0.0000000000000000e+00  1.4060988580453770e+00 9.6988007629782006e-05 0.0000000000000000e+00  1.4057955866247933e+00 1.5733346686396817e-04 0.0000000000000000e+00  1.4056699201135330e+00 2.1565902148431703e-04 0.0000000000000000e+00  1.4055552468121750e+00 1.3300332548221404e-04 0.0000000000000000e+00  1.4999818425200222e+00 8.8015859056377189e-10 0.0000000000000000e+00  1.5000628467066504e+00 -1.5726377938258632e-04 0.0000000000000000e+00  1.4989090650936283e+00 -1.8394026588814557e-04 0.0000000000000000e+00  1.4995948259065299e+00 -1.2684404172835082e-04 0.0000000000000000e+00  1.4973234077458715e+00 -6.4790591663054482e-05 0.0000000000000000e+00  1.4993115451047061e+00 8.4550170926451956e-05 0.0000000000000000e+00  1.4985647264132382e+00 2.8320550281096986e-04 0.0000000000000000e+00  1.4981401637824410e+00 4.6088464135772263e-04 0.0000000000000000e+00  1.4981764092922185e+00 3.4554090758834034e-04 0.0000000000000000e+00  1.4062361158148624e+00 6.6756415420970887e-10 0.0000000000000000e+00  1.4054865538028811e+00 -5.4663241157573262e-05 0.0000000000000000e+00  1.4059481118304360e+00 -2.3801272335648304e-04 0.0000000000000000e+00  1.4049662512533814e+00 -9.3864614114886312e-05 0.0000000000000000e+00  1.4064556212173487e+00 5.8883957503350193e-05 0.0000000000000000e+00  1.4036679779567991e+00 5.8585213280264573e-05 0.0000000000000000e+00  1.4066788445092262e+00 2.0923273861179551e-04 0.0000000000000000e+00  1.4052002941433870e+00 3.5188992491920620e-04 0.0000000000000000e+00  1.4050511246229411e+00 3.6029040861407604e-04 0.0000000000000000e+00  1.1249860146920234e+00 -8.2097220381651096e-12 0.0000000000000000e+00  1.1252780855322440e+00 1.9079490694251392e-04 0.0000000000000000e+00  1.1248839806509554e+00 -7.3680649619248625e-05 0.0000000000000000e+00  1.1244860226168667e+00 -7.4215393307105736e-05 0.0000000000000000e+00  1.1240375706743015e+00 -2.7004699295987938e-05 0.0000000000000000e+00  1.1247714558744981e+00 -1.2787309058429830e-05 0.0000000000000000e+00  1.1225703409158698e+00 2.1392423568635514e-04 0.0000000000000000e+00  1.1250553859811032e+00 4.3512389930247465e-04 0.0000000000000000e+00  1.1240519889954965e+00 5.1930468973606270e-04 0.0000000000000000e+00  6.5624143964453663e-01 -2.7516933554978531e-10 0.0000000000000000e+00  6.5587910250861226e-01 2.1733173321620690e-05 0.0000000000000000e+00  6.5653585813589554e-01 -2.0443821721827921e-04 0.0000000000000000e+00  6.5618746052050414e-01 -2.0607393488806572e-05 0.0000000000000000e+00  6.5664190121969246e-01 -2.1189018929385521e-05 0.0000000000000000e+00  6.5570417581309992e-01 3.5908743640171762e-05 0.0000000000000000e+00  6.5787142864080672e-01 2.2174790257644577e-04 0.0000000000000000e+00  6.5573722822455460e-01 1.7454980543682864e-04 0.0000000000000000e+00  6.5982506016860365e-01 5.7235300099036290e-04 0.0000000000000000e+00  -7.0281397856874523e-06 -8.2609023274853204e-10 0.0000000000000000e+00  -7.2265285023934777e-06 -5.0308363455946237e-10 0.0000000000000000e+00  -4.6032376048613926e-06 -2.3953830224338130e-10 0.0000000000000000e+00  -6.2742093394975261e-06 8.6992370062177561e-10 0.0000000000000000e+00  -2.2750903095812560e-06 1.1425381354738532e-09 0.0000000000000000e+00  -6.9280241275994015e-06 -1.4377586189259220e-09 0.0000000000000000e+00  -7.0870619173559284e-06 -4.5216423064060526e-10 0.0000000000000000e+00  4.7827129763921214e-07 4.2676442389979581e-10 0.0000000000000000e+00  -1.0283400480621911e-05 -4.5115881476109266e-09 0.0000000000000000e+00  </DataArray> 
</PointData> 
</Piece>
</UnstructuredGrid>
</VTKFile>