<?xml version="1.0"?>
<VTKFile type="UnstructuredGrid"  version="0.1"  >
<UnstructuredGrid>
<Piece  NumberOfPoints="81" NumberOfCells="128">
<Points>
<DataArray  type="Float64"  NumberOfComponents="3"  format="ascii">0 0 0  0.275 0 0  0.55 0 0  0.8250000000000001 0 0  1.1 0 0  1.375 0 0  1.65 0 0  1.925 0 0  2.2 0 0  0 0.05125 0  0.275 0.05125 0  0.55 0.05125 0  0.8250000000000001 0.05125 0  1.1 0.05125 0  1.375 0.05125 0  1.65 0.05125 0  1.925 0.05125 0  2.2 0.05125 0  0 0.1025 0  0.275 0.1025 0  0.55 0.1025 0  0.8250000000000001 0.1025 0  1.1 0.1025 0  1.375 0.1025 0  1.65 0.1025 0  1.925 0.1025 0  2.2 0.1025 0  0 0.15375 0  0.275 0.15375 0  0.55 0.15375 0  0.8250000000000001 0.15375 0  1.1 0.15375 0  1.375 0.15375 0  1.65 0.15375 0  1.925 0.15375 0  2.2 0.15375 0  0 0.205 0  0.275 0.205 0  0.55 0.205 0  0.8250000000000001 0.205 0  1.1 0.205 0  1.375 0.205 0  1.65 0.205 0  1.925 0.205 0  2.2 0.205 0  0 0.25625 0  0.275 0.25625 0  0.55 0.25625 0  0.8250000000000001 0.25625 0  1.1 0.25625 0  1.375 0.25625 0  1.65 0.25625 0  1.925 0.25625 0  2.2 0.25625 0  0 0.3075 0  0.275 0.3075 0  0.55 0.3075 0  0.8250000000000001 0.3075 0  1.1 0.3075 0  1.375 0.3075 0  1.65 0.3075 0  1.925 0.3075 0  2.2 0.3075 0  0 0.35875 0  0.275 0.35875 0  0.55 0.35875 0  0.8250000000000001 0.35875 0  1.1 0.35875 0  1.375 0.35875 0  1.65 0.35875 0  1.925 0.35875 0  2.2 0.35875 0  0 0.41 0  0.275 0.41 0  0.55 0.41 0  0.8250000000000001 0.41 0  1.1 0.41 0  1.375 0.41 0  1.65 0.41 0  1.925 0.41 0  2.2 0.41 0  </DataArray>
</Points>
<Cells>
<DataArray  type="UInt32"  Name="connectivity"  format="ascii">0 1 9  1 9 10  1 2 11  1 10 11  2 3 11  3 11 12  3 4 13  3 12 13  4 5 13  5 13 14  5 6 15  5 14 15  6 7 15  7 15 16  7 8 17  7 16 17  9 10 19  9 18 19  10 11 19  11 19 20  11 12 21  11 20 21  12 13 21  13 21 22  13 14 23  13 22 23  14 15 23  15 23 24  15 16 25  15 24 25  16 17 25  17 25 26  18 19 27  19 27 28  19 20 29  19 28 29  20 21 29  21 29 30  21 22 31  21 30 31  22 23 31  23 31 32  23 24 33  23 32 33  24 25 33  25 33 34  25 26 35  25 34 35  27 28 37  27 36 37  28 29 37  29 37 38  29 30 39  29 38 39  30 31 39  31 39 40  31 32 41  31 40 41  32 33 41  33 41 42  33 34 43  33 42 43  34 35 43  35 43 44  36 37 45  37 45 46  37 38 47  37 46 47  38 39 47  39 47 48  39 40 49  39 48 49  40 41 49  41 49 50  41 42 51  41 50 51  42 43 51  43 51 52  43 44 53  43 52 53  45 46 55  45 54 55  46 47 55  47 55 56  47 48 57  47 56 57  48 49 57  49 57 58  49 50 59  49 58 59  50 51 59  51 59 60  51 52 61  51 60 61  52 53 61  53 61 62  54 55 63  55 63 64  55 56 65  55 64 65  56 57 65  57 65 66  57 58 67  57 66 67  58 59 67  59 67 68  59 60 69  59 68 69  60 61 69  61 69 70  61 62 71  61 70 71  63 64 73  63 72 73  64 65 73  65 73 74  65 66 75  65 74 75  66 67 75  67 75 76  67 68 77  67 76 77  68 69 77  69 77 78  69 70 79  69 78 79  70 71 79  71 79 80  </DataArray>
<DataArray  type="UInt32"  Name="offsets"  format="ascii">3 6 9 12 15 18 21 24 27 30 33 36 39 42 45 48 51 54 57 60 63 66 69 72 75 78 81 84 87 90 93 96 99 102 105 108 111 114 117 120 123 126 129 132 135 138 141 144 147 150 153 156 159 162 165 168 171 174 177 180 183 186 189 192 195 198 201 204 207 210 213 216 219 222 225 228 231 234 237 240 243 246 249 252 255 258 261 264 267 270 273 276 279 282 285 288 291 294 297 300 303 306 309 312 315 318 321 324 327 330 333 336 339 342 345 348 351 354 357 360 363 366 369 372 375 378 381 384 </DataArray>
<DataArray  type="UInt8"  Name="types"  format="ascii">5 5 5 5 5 5 5 5 5 5 5 5 5 5 5 5 5 5 5 5 5 5 5 5 5 5 5 5 5 5 5 5 5 5 5 5 5 5 5 5 5 5 5 5 5 5 5 5 5 5 5 5 5 5 5 5 5 5 5 5 5 5 5 5 5 5 5 5 5 5 5 5 5 5 5 5 5 5 5 5 5 5 5 5 5 5 5 5 5 5 5 5 5 5 5 5 5 5 5 5 5 5 5 5 5 5 5 5 5 5 5 5 5 5 5 5 5 5 5 5 5 5 5 5 5 5 5 5 </DataArray>
</Cells>
<PointData  Vectors="f_16"> 
<DataArray  type="Float64"  Name="f_16"  NumberOfComponents="3" format="ascii">2.0493374500157870e-05 -4.3987962849797143e-09 0.0000000000000000e+00  -1.2002395440534332e-06 -3.3757852407293525e-11 0.0000000000000000e+00  1.0405331767282276e-06 -4.8547655546373081e-10 0.0000000000000000e+00  -8.2940558594628146e-06 2.3195328607038899e-10 0.0000000000000000e+00  -2.9367733313893640e-06 -8.3947918913010925e-10 0.0000000000000000e+00  -4.7717771447763572e-06 1.0930253973239655e-09 0.0000000000000000e+00  -5.1906644455503366e-06 1.9508573167074656e-09 0.0000000000000000e+00  -5.9154046937709754e-06 1.3328316496670986e-09 0.0000000000000000e+00  -1.2083320336074048e-06 1.1642935874034883e-09 0.0000000000000000e+00  6.5624702493095499e-01 -9.9232547258486218e-10 0.0000000000000000e+00  6.5717688770485072e-01 -1.2432782069847799e-04 0.0000000000000000e+00  6.5849367383943247e-01 1.2541770955955384e-04 0.0000000000000000e+00  6.5822399077705618e-01 -2.8378176747934209e-05 0.0000000000000000e+00  6.5903712619130927e-01 -3.2322807638100162e-05 0.0000000000000000e+00  6.5866826911176657e-01 9.2407023151964556e-05 0.0000000000000000e+00  6.5858753226943045e-01 -5.1029330599193992e-05 0.0000000000000000e+00  6.5789084868052461e-01 -2.1180641678284157e-05 0.0000000000000000e+00  6.6023339613401610e-01 -8.9381780181902707e-04 0.0000000000000000e+00  1.1249841047951277e+00 7.5927055925439474e-11 0.0000000000000000e+00  1.1256621003968712e+00 -6.3530510567690773e-04 0.0000000000000000e+00  1.1238956645911966e+00 -1.8683919319630900e-04 0.0000000000000000e+00  1.1266970479527341e+00 -1.3342844586581426e-04 0.0000000000000000e+00  1.1257012917468145e+00 5.9720019423485861e-05 0.0000000000000000e+00  1.1252666616411864e+00 2.7261743088119602e-04 0.0000000000000000e+00  1.1251046744003217e+00 7.8886009646016587e-05 0.0000000000000000e+00  1.1249577453935466e+00 1.6462224150485250e-04 0.0000000000000000e+00  1.1240144853611800e+00 -6.3057740661018379e-04 0.0000000000000000e+00  1.4062394842548054e+00 -6.9328608354978088e-10 0.0000000000000000e+00  1.4055293241387534e+00 -1.8010054092816680e-04 0.0000000000000000e+00  1.4070070836702122e+00 -1.7104078796814265e-04 0.0000000000000000e+00  1.4048862882851636e+00 -1.4231860281353675e-04 0.0000000000000000e+00  1.4069140875257056e+00 -1.1123482283037576e-04 0.0000000000000000e+00  1.4058243446256413e+00 8.7018470466268332e-05 0.0000000000000000e+00  1.4060442741306205e+00 1.1312927656253650e-04 0.0000000000000000e+00  1.4056899029821284e+00 1.6744680461937159e-04 0.0000000000000000e+00  1.4041586480175172e+00 -3.2753297620393367e-04 0.0000000000000000e+00  1.4999818470328841e+00 7.8786868273041991e-10 0.0000000000000000e+00  1.5000321881175569e+00 -1.5571096318826947e-04 0.0000000000000000e+00  1.4991022697074154e+00 -1.8170856761095150e-04 0.0000000000000000e+00  1.4997686323969013e+00 -1.1979471996032989e-04 0.0000000000000000e+00  1.4968207758870176e+00 -5.0357810944122271e-05 0.0000000000000000e+00  1.4990415275059377e+00 1.0483115641193005e-04 0.0000000000000000e+00  1.4989700722286146e+00 2.9740298861936909e-04 0.0000000000000000e+00  1.4980660251522693e+00 4.6770717553015507e-04 0.0000000000000000e+00  1.4965416241156597e+00 3.3518766513350315e-04 0.0000000000000000e+00  1.4062361198268361e+00 1.2052845337456553e-09 0.0000000000000000e+00  1.4054390130395353e+00 -3.6590132246966023e-05 0.0000000000000000e+00  1.4061000150521521e+00 -2.1288202951660944e-04 0.0000000000000000e+00  1.4051266958747961e+00 -1.1935368517417257e-04 0.0000000000000000e+00  1.4062180649817506e+00 2.0604804303711257e-05 0.0000000000000000e+00  1.4034665585646511e+00 1.0281737446120334e-04 0.0000000000000000e+00  1.4070307829563833e+00 2.8822983576873041e-04 0.0000000000000000e+00  1.4053680919948395e+00 4.0646275497290891e-04 0.0000000000000000e+00  1.4038146812540000e+00 7.7892284557356378e-04 0.0000000000000000e+00  1.1249860178850122e+00 9.1495294766662021e-10 0.0000000000000000e+00  1.1253919110887896e+00 2.0727941528018304e-04 0.0000000000000000e+00  1.1249130510801491e+00 -3.9717153133817014e-05 0.0000000000000000e+00  1.1247388993444154e+00 -6.4797593068921579e-05 0.0000000000000000e+00  1.1241931216654124e+00 -5.6291546822655258e-05 0.0000000000000000e+00  1.1249252060581949e+00 -7.6175875574560265e-05 0.0000000000000000e+00  1.1226967515761634e+00 3.0145262557866939e-04 0.0000000000000000e+00  1.1256414357507356e+00 4.8753306282050955e-04 0.0000000000000000e+00  1.1241900822499697e+00 1.2599596357488806e-03 0.0000000000000000e+00  6.5624144233720050e-01 3.3296733605285751e-10 0.0000000000000000e+00  6.5593023482181534e-01 1.8963358812626842e-05 0.0000000000000000e+00  6.5666777848870994e-01 -1.9585865034884916e-04 0.0000000000000000e+00  6.5624133871258816e-01 -2.1931993028789854e-05 0.0000000000000000e+00  6.5697736918950289e-01 -2.1498228068241267e-06 0.0000000000000000e+00  6.5588926176929974e-01 -1.0011469401298211e-05 0.0000000000000000e+00  6.5832624545130491e-01 2.7867936835873901e-04 0.0000000000000000e+00  6.5637135921630108e-01 2.2178603239308314e-04 0.0000000000000000e+00  6.6268534265217194e-01 1.3919848570327854e-03 0.0000000000000000e+00  -7.0250703422880370e-06 -8.9771572981798840e-10 0.0000000000000000e+00  -7.2257468712232520e-06 -5.5836974697550790e-10 0.0000000000000000e+00  -4.6061072213878840e-06 -6.5927291420187793e-10 0.0000000000000000e+00  -6.2765893036805800e-06 1.4156070184438526e-09 0.0000000000000000e+00  -2.2713869466532698e-06 2.0711344313705507e-09 0.0000000000000000e+00  -6.9280265356687230e-06 -3.1476632515209445e-09 0.0000000000000000e+00  -7.0893217299305415e-06 -1.3593654528604528e-09 0.0000000000000000e+00  4.8817819869640121e-07 1.6766547028288082e-09 0.0000000000000000e+00  -1.0259356187172901e-05 -7.3182991176452464e-09 0.0000000000000000e+00  </DataArray> 
</PointData> 
</Piece>
</UnstructuredGrid>
</VTKFile>