<?xml version="1.0"?>
<VTKFile type="UnstructuredGrid"  version="0.1"  >
<UnstructuredGrid>
<Piece  NumberOfPoints="81" NumberOfCells="128">
<Points>
<DataArray  type="Float64"  NumberOfComponents="3"  format="ascii">0 0 0  0.275 0 0  0.55 0 0  0.8250000000000001 0 0  1.1 0 0  1.375 0 0  1.65 0 0  1.925 0 0  2.2 0 0  0 0.05125 0  0.275 0.05125 0  0.55 0.05125 0  0.8250000000000001 0.05125 0  1.1 0.05125 0  1.375 0.05125 0  1.65 0.05125 0  1.925 0.05125 0  2.2 0.05125 0  0 0.1025 0  0.275 0.1025 0  0.55 0.1025 0  0.8250000000000001 0.1025 0  1.1 0.1025 0  1.375 0.1025 0  1.65 0.1025 0  1.925 0.1025 0  2.2 0.1025 0  0 0.15375 0  0.275 0.15375 0  0.55 0.15375 0  0.8250000000000001 0.15375 0  1.1 0.15375 0  1.375 0.15375 0  1.65 0.15375 0  1.925 0.15375 0  2.2 0.15375 0  0 0.205 0  0.275 0.205 0  0.55 0.205 0  0.8250000000000001 0.205 0  1.1 0.205 0  1.375 0.205 0  1.65 0.205 0  1.925 0.205 0  2.2 0.205 0  0 0.25625 0  0.275 0.25625 0  0.55 0.25625 0  0.8250000000000001 0.25625 0  1.1 0.25625 0  1.375 0.25625 0  1.65 0.25625 0  1.925 0.25625 0  2.2 0.25625 0  0 0.3075 0  0.275 0.3075 0  0.55 0.3075 0  0.8250000000000001 0.3075 0  1.1 0.3075 0  1.375 0.3075 0  1.65 0.3075 0  1.925 0.3075 0  2.2 0.3075 0  0 0.35875 0  0.275 0.35875 0  0.55 0.35875 0  0.8250000000000001 0.35875 0  1.1 0.35875 0  1.375 0.35875 0  1.65 0.35875 0  1.925 0.35875 0  2.2 0.35875 0  0 0.41 0  0.275 0.41 0  0.55 0.41 0  0.8250000000000001 0.41 0  1.1 0.41 0  1.375 0.41 0  1.65 0.41 0  1.925 0.41 0  2.2 0.41 0  </DataArray>
</Points>
<Cells>
<DataArray  type="UInt32"  Name="connectivity"  format="ascii">0 1 9  1 9 10  1 2 11  1 10 11  2 3 11  3 11 12  3 4 13  3 12 13  4 5 13  5 13 14  5 6 15  5 14 15  6 7 15  7 15 16  7 8 17  7 16 17  9 10 19  9 18 19  10 11 19  11 19 20  11 12 21  11 20 21  12 13 21  13 21 22  13 14 23  13 22 23  14 15 23  15 23 24  15 16 25  15 24 25  16 17 25  17 25 26  18 19 27  19 27 28  19 20 29  19 28 29  20 21 29  21 29 30  21 22 31  21 30 31  22 23 31  23 31 32  23 24 33  23 32 33  24 25 33  25 33 34  25 26 35  25 34 35  27 28 37  27 36 37  28 29 37  29 37 38  29 30 39  29 38 39  30 31 39  31 39 40  31 32 41  31 40 41  32 33 41  33 41 42  33 34 43  33 42 43  34 35 43  35 43 44  36 37 45  37 45 46  37 38 47  37 46 47  38 39 47  39 47 48  39 40 49  39 48 49  40 41 49  41 49 50  41 42 51  41 50 51  42 43 51  43 51 52  43 44 53  43 52 53  45 46 55  45 54 55  46 47 55  47 55 56  47 48 57  47 56 57  48 49 57  49 57 58  49 50 59  49 58 59  50 51 59  51 59 60  51 52 61  51 60 61  52 53 61  53 61 62  54 55 63  55 63 64  55 56 65  55 64 65  56 57 65  57 65 66  57 58 67  57 66 67  58 59 67  59 67 68  59 60 69  59 68 69  60 61 69  61 69 70  61 62 71  61 70 71  63 64 73  63 72 73  64 65 73  65 73 74  65 66 75  65 74 75  66 67 75  67 75 76  67 68 77  67 76 77  68 69 77  69 77 78  69 70 79  69 78 79  70 71 79  71 79 80  </DataArray>
<DataArray  type="UInt32"  Name="offsets"  format="ascii">3 6 9 12 15 18 21 24 27 30 33 36 39 42 45 48 51 54 57 60 63 66 69 72 75 78 81 84 87 90 93 96 99 102 105 108 111 114 117 120 123 126 129 132 135 138 141 144 147 150 153 156 159 162 165 168 171 174 177 180 183 186 189 192 195 198 201 204 207 210 213 216 219 222 225 228 231 234 237 240 243 246 249 252 255 258 261 264 267 270 273 276 279 282 285 288 291 294 297 300 303 306 309 312 315 318 321 324 327 330 333 336 339 342 345 348 351 354 357 360 363 366 369 372 375 378 381 384 </DataArray>
<DataArray  type="UInt8"  Name="types"  format="ascii">5 5 5 5 5 5 5 5 5 5 5 5 5 5 5 5 5 5 5 5 5 5 5 5 5 5 5 5 5 5 5 5 5 5 5 5 5 5 5 5 5 5 5 5 5 5 5 5 5 5 5 5 5 5 5 5 5 5 5 5 5 5 5 5 5 5 5 5 5 5 5 5 5 5 5 5 5 5 5 5 5 5 5 5 5 5 5 5 5 5 5 5 5 5 5 5 5 5 5 5 5 5 5 5 5 5 5 5 5 5 5 5 5 5 5 5 5 5 5 5 5 5 5 5 5 5 5 5 </DataArray>
</Cells>
<PointData  Vectors="f_16"> 
<DataArray  type="Float64"  Name="f_16"  NumberOfComponents="3" format="ascii">2.1159460902942021e-05 -3.5979879871364379e-08 0.0000000000000000e+00  -9.9661041415818297e-07 -2.3084066558307816e-08 0.0000000000000000e+00  1.5683719001621268e-06 -4.0681881307105708e-09 0.0000000000000000e+00  -8.4941725955101973e-06 2.7122869047840413e-08 0.0000000000000000e+00  -3.5493037665073236e-06 -5.1419099935701535e-08 0.0000000000000000e+00  -5.4195871766731784e-06 8.7441522787948756e-08 0.0000000000000000e+00  -7.3413985717027643e-06 -2.2097884205835580e-08 0.0000000000000000e+00  -7.0087972742736075e-06 7.7409565060132563e-09 0.0000000000000000e+00  -3.7574995723322298e-06 8.2815988288826659e-09 0.0000000000000000e+00  6.5624723917498884e-01 -3.2542904450716387e-08 0.0000000000000000e+00  6.6224319535493326e-01 -8.2143087326299713e-04 0.0000000000000000e+00  6.6009641509706452e-01 4.0303962122290831e-05 0.0000000000000000e+00  6.8467490913875428e-01 -5.7021066875234880e-03 0.0000000000000000e+00  7.7024978689176615e-01 -1.4326904384370483e-02 0.0000000000000000e+00  8.5867107249939845e-01 -8.8030002200539404e-03 0.0000000000000000e+00  8.9798108810220301e-01 -1.5402819584295507e-05 0.0000000000000000e+00  8.8534400734688934e-01 -3.3527049830516082e-03 0.0000000000000000e+00  8.8652096231038313e-01 3.9427283099804618e-03 0.0000000000000000e+00  1.1249843946304887e+00 -5.4227992825282973e-08 0.0000000000000000e+00  1.1257483463745077e+00 -1.1094467943265492e-03 0.0000000000000000e+00  1.1213603253341717e+00 -2.1850765208410788e-03 0.0000000000000000e+00  1.1328043047514593e+00 -9.8929835216772528e-03 0.0000000000000000e+00  1.1129500344935890e+00 -1.8769871880351827e-02 0.0000000000000000e+00  1.1259331202032898e+00 -3.0142087425747619e-02 0.0000000000000000e+00  1.1834040183504726e+00 -2.2697228035019968e-03 0.0000000000000000e+00  1.1796288805895130e+00 -1.7852495886111048e-05 0.0000000000000000e+00  1.1848947382673189e+00 -3.7902011407670228e-04 0.0000000000000000e+00  1.4062398594314176e+00 -4.5957765217986266e-08 0.0000000000000000e+00  1.4031557904758980e+00 -7.6930322834429133e-04 0.0000000000000000e+00  1.4100178008350539e+00 -1.5236892756469082e-03 0.0000000000000000e+00  1.4018333914958316e+00 -4.4065677063984026e-03 0.0000000000000000e+00  1.3403206167584067e+00 -1.2414212932280996e-02 0.0000000000000000e+00  1.2498232969766891e+00 -2.5611006140234337e-02 0.0000000000000000e+00  1.2086774186051479e+00 -2.6962669003660553e-03 0.0000000000000000e+00  1.2288940354688942e+00 1.7113227123084010e-03 0.0000000000000000e+00  1.2186681530031271e+00 -3.6961291037052807e-03 0.0000000000000000e+00  1.4999820503538484e+00 -2.8998965503568855e-08 0.0000000000000000e+00  1.4967652236008697e+00 -1.4798842641868052e-04 0.0000000000000000e+00  1.5041346932385407e+00 -1.2166722130332941e-04 0.0000000000000000e+00  1.4940848347792650e+00 6.3062417338499764e-05 0.0000000000000000e+00  1.4104835374355376e+00 -3.1755521494087256e-05 0.0000000000000000e+00  1.3016419992716266e+00 -9.5215434310707924e-06 0.0000000000000000e+00  1.2113484591091281e+00 1.8228653830830753e-04 0.0000000000000000e+00  1.2311563806278398e+00 2.0170021524560809e-04 0.0000000000000000e+00  1.2215933953027649e+00 8.3107637599322287e-05 0.0000000000000000e+00  1.4062366181570041e+00 1.3982693252908518e-08 0.0000000000000000e+00  1.4030569142195657e+00 5.9714342967387185e-04 0.0000000000000000e+00  1.4091165246826483e+00 1.2301652810681710e-03 0.0000000000000000e+00  1.4024542063873371e+00 4.3767526131242174e-03 0.0000000000000000e+00  1.3400979907331210e+00 1.2382927206527195e-02 0.0000000000000000e+00  1.2474118032748558e+00 2.5582360135740636e-02 0.0000000000000000e+00  1.2098995210130048e+00 2.8388634012554651e-03 0.0000000000000000e+00  1.2283229294713838e+00 -1.5455070170189633e-03 0.0000000000000000e+00  1.2178128530514376e+00 3.5826571674049301e-03 0.0000000000000000e+00  1.1249861377289443e+00 4.3279844747563179e-08 0.0000000000000000e+00  1.1254705780754832e+00 6.7888849271332207e-04 0.0000000000000000e+00  1.1224631420565199e+00 2.0370565739100959e-03 0.0000000000000000e+00  1.1314658192988076e+00 9.9025239664508654e-03 0.0000000000000000e+00  1.1125485712005123e+00 1.8830950342280467e-02 0.0000000000000000e+00  1.1261648588020747e+00 3.0146621642241508e-02 0.0000000000000000e+00  1.1813581481405921e+00 2.3677676652792768e-03 0.0000000000000000e+00  1.1799338749542110e+00 4.1819398731264811e-04 0.0000000000000000e+00  1.1840745067940910e+00 5.9856221794418632e-04 0.0000000000000000e+00  6.5624180795836951e-01 2.1888754200356908e-08 0.0000000000000000e+00  6.6095386894493957e-01 7.1659600111914851e-04 0.0000000000000000e+00  6.5844739394390872e-01 -8.0652625488852119e-05 0.0000000000000000e+00  6.8329388750850006e-01 5.6848576871996069e-03 0.0000000000000000e+00  7.6930344679224572e-01 1.4301358151940700e-02 0.0000000000000000e+00  8.5724685159952030e-01 8.8118111344666836e-03 0.0000000000000000e+00  8.9775308414762467e-01 1.1356245915354760e-04 0.0000000000000000e+00  8.8317903737439818e-01 3.4622972695434063e-03 0.0000000000000000e+00  8.8758548804844872e-01 -3.7116725705111631e-03 0.0000000000000000e+00  -6.7092052971570400e-06 -3.2239535710464985e-10 0.0000000000000000e+00  -7.0550018747590508e-06 6.6156039771835362e-09 0.0000000000000000e+00  -4.3001519125440619e-06 -2.1492321879791039e-10 0.0000000000000000e+00  -5.9516062726654229e-06 1.0402257970422599e-08 0.0000000000000000e+00  -2.5030377065729435e-06 -9.7173503828828317e-09 0.0000000000000000e+00  -7.1960913120684075e-06 -1.0847451367428918e-07 0.0000000000000000e+00  -8.6130536925741722e-06 8.5905028397151822e-09 0.0000000000000000e+00  1.1810800758381051e-06 2.9642150369583953e-08 0.0000000000000000e+00  -1.1353303834875219e-05 -1.0858021002351367e-08 0.0000000000000000e+00  </DataArray> 
</PointData> 
</Piece>
</UnstructuredGrid>
</VTKFile>