<?xml version="1.0"?>
<VTKFile type="UnstructuredGrid"  version="0.1"  >
<UnstructuredGrid>
<Piece  NumberOfPoints="81" NumberOfCells="128">
<Points>
<DataArray  type="Float64"  NumberOfComponents="3"  format="ascii">0 0 0  0.275 0 0  0.55 0 0  0.8250000000000001 0 0  1.1 0 0  1.375 0 0  1.65 0 0  1.925 0 0  2.2 0 0  0 0.05125 0  0.275 0.05125 0  0.55 0.05125 0  0.8250000000000001 0.05125 0  1.1 0.05125 0  1.375 0.05125 0  1.65 0.05125 0  1.925 0.05125 0  2.2 0.05125 0  0 0.1025 0  0.275 0.1025 0  0.55 0.1025 0  0.8250000000000001 0.1025 0  1.1 0.1025 0  1.375 0.1025 0  1.65 0.1025 0  1.925 0.1025 0  2.2 0.1025 0  0 0.15375 0  0.275 0.15375 0  0.55 0.15375 0  0.8250000000000001 0.15375 0  1.1 0.15375 0  1.375 0.15375 0  1.65 0.15375 0  1.925 0.15375 0  2.2 0.15375 0  0 0.205 0  0.275 0.205 0  0.55 0.205 0  0.8250000000000001 0.205 0  1.1 0.205 0  1.375 0.205 0  1.65 0.205 0  1.925 0.205 0  2.2 0.205 0  0 0.25625 0  0.275 0.25625 0  0.55 0.25625 0  0.8250000000000001 0.25625 0  1.1 0.25625 0  1.375 0.25625 0  1.65 0.25625 0  1.925 0.25625 0  2.2 0.25625 0  0 0.3075 0  0.275 0.3075 0  0.55 0.3075 0  0.8250000000000001 0.3075 0  1.1 0.3075 0  1.375 0.3075 0  1.65 0.3075 0  1.925 0.3075 0  2.2 0.3075 0  0 0.35875 0  0.275 0.35875 0  0.55 0.35875 0  0.8250000000000001 0.35875 0  1.1 0.35875 0  1.375 0.35875 0  1.65 0.35875 0  1.925 0.35875 0  2.2 0.35875 0  0 0.41 0  0.275 0.41 0  0.55 0.41 0  0.8250000000000001 0.41 0  1.1 0.41 0  1.375 0.41 0  1.65 0.41 0  1.925 0.41 0  2.2 0.41 0  </DataArray>
</Points>
<Cells>
<DataArray  type="UInt32"  Name="connectivity"  format="ascii">0 1 9  1 9 10  1 2 11  1 10 11  2 3 11  3 11 12  3 4 13  3 12 13  4 5 13  5 13 14  5 6 15  5 14 15  6 7 15  7 15 16  7 8 17  7 16 17  9 10 19  9 18 19  10 11 19  11 19 20  11 12 21  11 20 21  12 13 21  13 21 22  13 14 23  13 22 23  14 15 23  15 23 24  15 16 25  15 24 25  16 17 25  17 25 26  18 19 27  19 27 28  19 20 29  19 28 29  20 21 29  21 29 30  21 22 31  21 30 31  22 23 31  23 31 32  23 24 33  23 32 33  24 25 33  25 33 34  25 26 35  25 34 35  27 28 37  27 36 37  28 29 37  29 37 38  29 30 39  29 38 39  30 31 39  31 39 40  31 32 41  31 40 41  32 33 41  33 41 42  33 34 43  33 42 43  34 35 43  35 43 44  36 37 45  37 45 46  37 38 47  37 46 47  38 39 47  39 47 48  39 40 49  39 48 49  40 41 49  41 49 50  41 42 51  41 50 51  42 43 51  43 51 52  43 44 53  43 52 53  45 46 55  45 54 55  46 47 55  47 55 56  47 48 57  47 56 57  48 49 57  49 57 58  49 50 59  49 58 59  50 51 59  51 59 60  51 52 61  51 60 61  52 53 61  53 61 62  54 55 63  55 63 64  55 56 65  55 64 65  56 57 65  57 65 66  57 58 67  57 66 67  58 59 67  59 67 68  59 60 69  59 68 69  60 61 69  61 69 70  61 62 71  61 70 71  63 64 73  63 72 73  64 65 73  65 73 74  65 66 75  65 74 75  66 67 75  67 75 76  67 68 77  67 76 77  68 69 77  69 77 78  69 70 79  69 78 79  70 71 79  71 79 80  </DataArray>
<DataArray  type="UInt32"  Name="offsets"  format="ascii">3 6 9 12 15 18 21 24 27 30 33 36 39 42 45 48 51 54 57 60 63 66 69 72 75 78 81 84 87 90 93 96 99 102 105 108 111 114 117 120 123 126 129 132 135 138 141 144 147 150 153 156 159 162 165 168 171 174 177 180 183 186 189 192 195 198 201 204 207 210 213 216 219 222 225 228 231 234 237 240 243 246 249 252 255 258 261 264 267 270 273 276 279 282 285 288 291 294 297 300 303 306 309 312 315 318 321 324 327 330 333 336 339 342 345 348 351 354 357 360 363 366 369 372 375 378 381 384 </DataArray>
<DataArray  type="UInt8"  Name="types"  format="ascii">5 5 5 5 5 5 5 5 5 5 5 5 5 5 5 5 5 5 5 5 5 5 5 5 5 5 5 5 5 5 5 5 5 5 5 5 5 5 5 5 5 5 5 5 5 5 5 5 5 5 5 5 5 5 5 5 5 5 5 5 5 5 5 5 5 5 5 5 5 5 5 5 5 5 5 5 5 5 5 5 5 5 5 5 5 5 5 5 5 5 5 5 5 5 5 5 5 5 5 5 5 5 5 5 5 5 5 5 5 5 5 5 5 5 5 5 5 5 5 5 5 5 5 5 5 5 5 5 </DataArray>
</Cells>
<PointData  Vectors="f_16"> 
<DataArray  type="Float64"  Name="f_16"  NumberOfComponents="3" format="ascii">2.0713985311183080e-05 -1.5906450984958477e-08 0.0000000000000000e+00  -1.1456141877188044e-06 -1.3545050491274018e-09 0.0000000000000000e+00  1.2602271452605254e-06 -4.1648695746649536e-09 0.0000000000000000e+00  -8.2090201477363850e-06 2.2477168107541368e-08 0.0000000000000000e+00  -3.0623829089791992e-06 -1.5988471492627886e-08 0.0000000000000000e+00  -5.0519792267066939e-06 6.4407205686316841e-08 0.0000000000000000e+00  -6.5684501068982877e-06 1.0582825205641933e-07 0.0000000000000000e+00  -6.7813442925656706e-06 3.5315988178129255e-08 0.0000000000000000e+00  -2.9607181131153183e-06 -1.1258990585975783e-08 0.0000000000000000e+00  6.5624711432711391e-01 -1.7908897635975166e-08 0.0000000000000000e+00  6.5721361230207864e-01 9.9411050642768923e-05 0.0000000000000000e+00  6.5903920506786540e-01 -5.4372210409572787e-04 0.0000000000000000e+00  6.6378273356855622e-01 -9.9291217904607819e-04 0.0000000000000000e+00  6.8322772026822709e-01 -6.6298258609519579e-03 0.0000000000000000e+00  7.4163657680151074e-01 -8.6729915793710022e-03 0.0000000000000000e+00  8.1746222924079870e-01 -5.7687972118715593e-03 0.0000000000000000e+00  8.5194687958785520e-01 1.1490226756775703e-03 0.0000000000000000e+00  8.5036427828169125e-01 -2.6053820828081929e-03 0.0000000000000000e+00  1.1249842701541850e+00 -2.7599761903479119e-08 0.0000000000000000e+00  1.1259388169934939e+00 -7.8009753303356433e-04 0.0000000000000000e+00  1.1225832862830589e+00 -1.7094153889648980e-03 0.0000000000000000e+00  1.1262927846915654e+00 -1.4525733693192715e-03 0.0000000000000000e+00  1.1229458425915031e+00 -7.2289269826578354e-03 0.0000000000000000e+00  1.1126162784310694e+00 -1.7797172329333220e-02 0.0000000000000000e+00  1.1342139932238982e+00 -1.9882732421560884e-02 0.0000000000000000e+00  1.1868833328133812e+00 -1.1563701024469484e-03 0.0000000000000000e+00  1.1851203771251881e+00 1.1203928598096419e-03 0.0000000000000000e+00  1.4062397891962581e+00 -1.8017146607515322e-08 0.0000000000000000e+00  1.4043222808406699e+00 -4.4695361386113216e-04 0.0000000000000000e+00  1.4082006930844833e+00 -1.8421378826718286e-03 0.0000000000000000e+00  1.4084926526711388e+00 -1.5687678835523726e-04 0.0000000000000000e+00  1.3929143612705155e+00 -3.4238480251459701e-03 0.0000000000000000e+00  1.3452246362153348e+00 -1.2285858832661332e-02 0.0000000000000000e+00  1.2886721233047120e+00 -1.7823484862594604e-02 0.0000000000000000e+00  1.2450666201731386e+00 -6.6622137123066305e-03 0.0000000000000000e+00  1.2530515402284748e+00 3.1683615841945458e-03 0.0000000000000000e+00  1.4999819845020361e+00 -7.7504747710487471e-09 0.0000000000000000e+00  1.4992428955213768e+00 -1.4672348390998226e-04 0.0000000000000000e+00  1.5020355240398306e+00 -1.4818043260332632e-04 0.0000000000000000e+00  1.5068738833229951e+00 -4.0698806556598022e-05 0.0000000000000000e+00  1.4790876594437887e+00 4.4946828516526896e-05 0.0000000000000000e+00  1.4275007045091681e+00 3.9100644807641338e-05 0.0000000000000000e+00  1.3481804747380581e+00 8.4489264669023213e-05 0.0000000000000000e+00  1.2529589842036293e+00 2.5231966737963033e-04 0.0000000000000000e+00  1.2564002100776381e+00 8.1745162623325760e-05 0.0000000000000000e+00  1.4062364791939528e+00 7.1500558083175988e-09 0.0000000000000000e+00  1.4042559068732112e+00 2.5110630530965887e-04 0.0000000000000000e+00  1.4073053549743209e+00 1.4877266988122504e-03 0.0000000000000000e+00  1.4089055900054246e+00 3.6512688616544834e-05 0.0000000000000000e+00  1.3927142151929959e+00 3.5882932635024922e-03 0.0000000000000000e+00  1.3431572416776518e+00 1.2335298524705794e-02 0.0000000000000000e+00  1.2896212053015936e+00 1.7852375389991754e-02 0.0000000000000000e+00  1.2444120942703787e+00 6.8675315425600547e-03 0.0000000000000000e+00  1.2520139985423915e+00 -3.1728226336087424e-03 0.0000000000000000e+00  1.1249860916903434e+00 2.4790856384612612e-08 0.0000000000000000e+00  1.1256365372907839e+00 3.4277610794656091e-04 0.0000000000000000e+00  1.1236888025353771e+00 1.5210071643756522e-03 0.0000000000000000e+00  1.1245958938508183e+00 1.3612344731123098e-03 0.0000000000000000e+00  1.1222786058443881e+00 7.3694597035867263e-03 0.0000000000000000e+00  1.1130945838411443e+00 1.7953269394417173e-02 0.0000000000000000e+00  1.1320208906583942e+00 1.9966225053092992e-02 0.0000000000000000e+00  1.1870738692588847e+00 1.4643915419557210e-03 0.0000000000000000e+00  1.1840173926772679e+00 -7.6627310153151880e-04 0.0000000000000000e+00  6.5624169130488064e-01 1.1139676796646367e-08 0.0000000000000000e+00  6.5592716606812840e-01 -2.0289919927652262e-04 0.0000000000000000e+00  6.5719958312392612e-01 4.7889701315098940e-04 0.0000000000000000e+00  6.6210948302863859e-01 9.6004657172930495e-04 0.0000000000000000e+00  6.8188817288394610e-01 6.6364883845315119e-03 0.0000000000000000e+00  7.3998808467778743e-01 8.7424538205565019e-03 0.0000000000000000e+00  8.1751751306477904e-01 5.8591008419581567e-03 0.0000000000000000e+00  8.4957334197369505e-01 -1.0658926505107413e-03 0.0000000000000000e+00  8.5158127658760596e-01 2.9791516218313002e-03 0.0000000000000000e+00  -6.9221533188861149e-06 -5.4350517539363973e-09 0.0000000000000000e+00  -7.2128020796312414e-06 -7.6417953112684705e-09 0.0000000000000000e+00  -4.4974382789991394e-06 8.1309844501566237e-10 0.0000000000000000e+00  -6.1161418507916825e-06 2.1069450369186925e-09 0.0000000000000000e+00  -2.2206538279181283e-06 5.2621768722145819e-08 0.0000000000000000e+00  -6.9345839747485477e-06 6.6051242425558747e-10 0.0000000000000000e+00  -8.2843825207351280e-06 -7.0282610080218172e-08 0.0000000000000000e+00  1.0091938383253717e-06 -3.8448530427038600e-08 0.0000000000000000e+00  -1.0819558685062981e-05 -1.0043373972827110e-08 0.0000000000000000e+00  </DataArray> 
</PointData> 
</Piece>
</UnstructuredGrid>
</VTKFile>