<?xml version="1.0"?>
<VTKFile type="UnstructuredGrid"  version="0.1"  >
<UnstructuredGrid>
<Piece  NumberOfPoints="81" NumberOfCells="128">
<Points>
<DataArray  type="Float64"  NumberOfComponents="3"  format="ascii">0 0 0  0.275 0 0  0.55 0 0  0.8250000000000001 0 0  1.1 0 0  1.375 0 0  1.65 0 0  1.925 0 0  2.2 0 0  0 0.05125 0  0.275 0.05125 0  0.55 0.05125 0  0.8250000000000001 0.05125 0  1.1 0.05125 0  1.375 0.05125 0  1.65 0.05125 0  1.925 0.05125 0  2.2 0.05125 0  0 0.1025 0  0.275 0.1025 0  0.55 0.1025 0  0.8250000000000001 0.1025 0  1.1 0.1025 0  1.375 0.1025 0  1.65 0.1025 0  1.925 0.1025 0  2.2 0.1025 0  0 0.15375 0  0.275 0.15375 0  0.55 0.15375 0  0.8250000000000001 0.15375 0  1.1 0.15375 0  1.375 0.15375 0  1.65 0.15375 0  1.925 0.15375 0  2.2 0.15375 0  0 0.205 0  0.275 0.205 0  0.55 0.205 0  0.8250000000000001 0.205 0  1.1 0.205 0  1.375 0.205 0  1.65 0.205 0  1.925 0.205 0  2.2 0.205 0  0 0.25625 0  0.275 0.25625 0  0.55 0.25625 0  0.8250000000000001 0.25625 0  1.1 0.25625 0  1.375 0.25625 0  1.65 0.25625 0  1.925 0.25625 0  2.2 0.25625 0  0 0.3075 0  0.275 0.3075 0  0.55 0.3075 0  0.8250000000000001 0.3075 0  1.1 0.3075 0  1.375 0.3075 0  1.65 0.3075 0  1.925 0.3075 0  2.2 0.3075 0  0 0.35875 0  0.275 0.35875 0  0.55 0.35875 0  0.8250000000000001 0.35875 0  1.1 0.35875 0  1.375 0.35875 0  1.65 0.35875 0  1.925 0.35875 0  2.2 0.35875 0  0 0.41 0  0.275 0.41 0  0.55 0.41 0  0.8250000000000001 0.41 0  1.1 0.41 0  1.375 0.41 0  1.65 0.41 0  1.925 0.41 0  2.2 0.41 0  </DataArray>
</Points>
<Cells>
<DataArray  type="UInt32"  Name="connectivity"  format="ascii">0 1 9  1 9 10  1 2 11  1 10 11  2 3 11  3 11 12  3 4 13  3 12 13  4 5 13  5 13 14  5 6 15  5 14 15  6 7 15  7 15 16  7 8 17  7 16 17  9 10 19  9 18 19  10 11 19  11 19 20  11 12 21  11 20 21  12 13 21  13 21 22  13 14 23  13 22 23  14 15 23  15 23 24  15 16 25  15 24 25  16 17 25  17 25 26  18 19 27  19 27 28  19 20 29  19 28 29  20 21 29  21 29 30  21 22 31  21 30 31  22 23 31  23 31 32  23 24 33  23 32 33  24 25 33  25 33 34  25 26 35  25 34 35  27 28 37  27 36 37  28 29 37  29 37 38  29 30 39  29 38 39  30 31 39  31 39 40  31 32 41  31 40 41  32 33 41  33 41 42  33 34 43  33 42 43  34 35 43  35 43 44  36 37 45  37 45 46  37 38 47  37 46 47  38 39 47  39 47 48  39 40 49  39 48 49  40 41 49  41 49 50  41 42 51  41 50 51  42 43 51  43 51 52  43 44 53  43 52 53  45 46 55  45 54 55  46 47 55  47 55 56  47 48 57  47 56 57  48 49 57  49 57 58  49 50 59  49 58 59  50 51 59  51 59 60  51 52 61  51 60 61  52 53 61  53 61 62  54 55 63  55 63 64  55 56 65  55 64 65  56 57 65  57 65 66  57 58 67  57 66 67  58 59 67  59 67 68  59 60 69  59 68 69  60 61 69  61 69 70  61 62 71  61 70 71  63 64 73  63 72 73  64 65 73  65 73 74  65 66 75  65 74 75  66 67 75  67 75 76  67 68 77  67 76 77  68 69 77  69 77 78  69 70 79  69 78 79  70 71 79  71 79 80  </DataArray>
<DataArray  type="UInt32"  Name="offsets"  format="ascii">3 6 9 12 15 18 21 24 27 30 33 36 39 42 45 48 51 54 57 60 63 66 69 72 75 78 81 84 87 90 93 96 99 102 105 108 111 114 117 120 123 126 129 132 135 138 141 144 147 150 153 156 159 162 165 168 171 174 177 180 183 186 189 192 195 198 201 204 207 210 213 216 219 222 225 228 231 234 237 240 243 246 249 252 255 258 261 264 267 270 273 276 279 282 285 288 291 294 297 300 303 306 309 312 315 318 321 324 327 330 333 336 339 342 345 348 351 354 357 360 363 366 369 372 375 378 381 384 </DataArray>
<DataArray  type="UInt8"  Name="types"  format="ascii">5 5 5 5 5 5 5 5 5 5 5 5 5 5 5 5 5 5 5 5 5 5 5 5 5 5 5 5 5 5 5 5 5 5 5 5 5 5 5 5 5 5 5 5 5 5 5 5 5 5 5 5 5 5 5 5 5 5 5 5 5 5 5 5 5 5 5 5 5 5 5 5 5 5 5 5 5 5 5 5 5 5 5 5 5 5 5 5 5 5 5 5 5 5 5 5 5 5 5 5 5 5 5 5 5 5 5 5 5 5 5 5 5 5 5 5 5 5 5 5 5 5 5 5 5 5 5 5 </DataArray>
</Cells>
<PointData  Vectors="f_16"> 
<DataArray  type="Float64"  Name="f_16"  NumberOfComponents="3" format="ascii">2.1616966433026316e-05 -6.6319315857695932e-08 0.0000000000000000e+00  -6.7166226126298951e-07 -6.8119145456356218e-08 0.0000000000000000e+00  1.7275181948113611e-06 -1.4919691536383834e-08 0.0000000000000000e+00  -9.1659922365861783e-06 -5.0337990300345238e-08 0.0000000000000000e+00  -4.4171024057018225e-06 1.8137553433166478e-07 0.0000000000000000e+00  -5.4973725836239078e-06 -7.8080636936744099e-08 0.0000000000000000e+00  -8.0437025692558760e-06 -9.3238218839401658e-08 0.0000000000000000e+00  -7.0295841387580617e-06 6.0906966319232530e-08 0.0000000000000000e+00  -3.6770932661051823e-06 -3.0934224474922072e-08 0.0000000000000000e+00  6.5624752925463681e-01 -4.9800353764263574e-08 0.0000000000000000e+00  6.5797976255569124e-01 1.9257519619521107e-03 0.0000000000000000e+00  6.9377037061913605e-01 -1.2940234809855983e-02 0.0000000000000000e+00  7.9673963571958839e-01 -2.7360885146593336e-02 0.0000000000000000e+00  9.5288880820224631e-01 1.7107991686542165e-03 0.0000000000000000e+00  9.5553862388638788e-01 2.3655535730267583e-03 0.0000000000000000e+00  9.4952035190109163e-01 -3.5808356531147468e-03 0.0000000000000000e+00  9.4421729581209246e-01 5.2031398558760418e-03 0.0000000000000000e+00  9.5837640945148739e-01 -8.1574837785596700e-03 0.0000000000000000e+00  1.1249844815691388e+00 -7.5822180560623626e-08 0.0000000000000000e+00  1.1214020773755125e+00 2.4160419802224773e-03 0.0000000000000000e+00  1.1179130330717788e+00 -1.8134496087358887e-02 0.0000000000000000e+00  1.1026912989444564e+00 -3.9773822074980321e-02 0.0000000000000000e+00  1.1443237573503426e+00 -2.0188299633073479e-02 0.0000000000000000e+00  1.1622216794057090e+00 1.3706527310339558e-03 0.0000000000000000e+00  1.1644416057918505e+00 7.8600864763459725e-04 0.0000000000000000e+00  1.1766369799096283e+00 4.4617356837159524e-03 0.0000000000000000e+00  1.1671138420937250e+00 -3.5191817627401546e-03 0.0000000000000000e+00  1.4062402815032753e+00 -3.3148106419781046e-08 0.0000000000000000e+00  1.4001871940149229e+00 -1.9544124454122565e-03 0.0000000000000000e+00  1.3993151547824021e+00 -1.0602942122571542e-02 0.0000000000000000e+00  1.3273293087331830e+00 -1.4611461303355782e-02 0.0000000000000000e+00  1.1973370812463702e+00 -2.4365653651686067e-02 0.0000000000000000e+00  1.1721834237303252e+00 -7.5233549197702672e-05 0.0000000000000000e+00  1.1831430965664227e+00 2.1187388665572927e-03 0.0000000000000000e+00  1.1940353222254818e+00 1.4787931886934070e-03 0.0000000000000000e+00  1.1796563878865378e+00 -9.4695938056744402e-04 0.0000000000000000e+00  1.4999822071661300e+00 -6.9041537987563236e-08 0.0000000000000000e+00  1.4902112282705577e+00 -1.5654574110644714e-04 0.0000000000000000e+00  1.4863700769145431e+00 -1.0880873818421518e-04 0.0000000000000000e+00  1.4224837866207956e+00 -9.7720790123354696e-06 0.0000000000000000e+00  1.2213923033239742e+00 -1.9418139744757120e-05 0.0000000000000000e+00  1.1693249541046400e+00 4.0192053443969503e-05 0.0000000000000000e+00  1.1828073354206532e+00 1.9229990922560420e-04 0.0000000000000000e+00  1.1969641297192120e+00 1.4804964822928999e-04 0.0000000000000000e+00  1.1798536288581014e+00 4.0086013762434316e-05 0.0000000000000000e+00  1.4062372113835049e+00 -1.8230649695881490e-08 0.0000000000000000e+00  1.4001058564858244e+00 1.8399370550323377e-03 0.0000000000000000e+00  1.3985704286496921e+00 1.0476913197524884e-02 0.0000000000000000e+00  1.3277980263114484e+00 1.4546859103268330e-02 0.0000000000000000e+00  1.1969108115752534e+00 2.4297825612710232e-02 0.0000000000000000e+00  1.1702907222037018e+00 1.0945831563451776e-04 0.0000000000000000e+00  1.1843484038328496e+00 -1.7954448773253838e-03 0.0000000000000000e+00  1.1938325733782653e+00 -1.3886347855409844e-03 0.0000000000000000e+00  1.1793341984277579e+00 8.0021616965563510e-04 0.0000000000000000e+00  1.1249860911733673e+00 5.4086530791839813e-08 0.0000000000000000e+00  1.1211879898169137e+00 -2.8819723002055909e-03 0.0000000000000000e+00  1.1190992458617186e+00 1.8094926583788366e-02 0.0000000000000000e+00  1.1015774112783916e+00 3.9764200017791844e-02 0.0000000000000000e+00  1.1439647960055237e+00 2.0158262638052347e-02 0.0000000000000000e+00  1.1626109659291386e+00 -1.3606411687003188e-03 0.0000000000000000e+00  1.1626003897528689e+00 -5.4763118192191766e-04 0.0000000000000000e+00  1.1776228984315655e+00 -4.2927995067395183e-03 0.0000000000000000e+00  1.1664759825107243e+00 3.6602741634208587e-03 0.0000000000000000e+00  6.5624212825393780e-01 5.2632594582562145e-08 0.0000000000000000e+00  6.5666438889248402e-01 -2.0572523399061101e-03 0.0000000000000000e+00  6.9243593149603611e-01 1.2948116085843606e-02 0.0000000000000000e+00  7.9574180289340246e-01 2.7358399285005861e-02 0.0000000000000000e+00  9.5231512844856603e-01 -1.7202718505407992e-03 0.0000000000000000e+00  9.5394083571860511e-01 -2.3849700906268365e-03 0.0000000000000000e+00  9.4972354230013678e-01 3.7476560720164733e-03 0.0000000000000000e+00  9.4208670760384805e-01 -5.1760553827326309e-03 0.0000000000000000e+00  9.5909645701057955e-01 8.3948150282535279e-03 0.0000000000000000e+00  -6.4818474707689475e-06 9.8969976402178491e-09 0.0000000000000000e+00  -6.6792408575574373e-06 -1.5437499239036091e-08 0.0000000000000000e+00  -4.1796228456822083e-06 -1.3101045472532944e-08 0.0000000000000000e+00  -6.2639392861060069e-06 8.1623320181817778e-08 0.0000000000000000e+00  -3.5355605911159901e-06 -2.3988413878832073e-07 0.0000000000000000e+00  -7.7507244994496493e-06 -5.8396308162233830e-08 0.0000000000000000e+00  -9.1938335563862463e-06 -7.9839773195967805e-09 0.0000000000000000e+00  1.4765211758717233e-06 -4.2945362567696676e-08 0.0000000000000000e+00  -1.0713185958212147e-05 2.8400334490405650e-08 0.0000000000000000e+00  </DataArray> 
</PointData> 
</Piece>
</UnstructuredGrid>
</VTKFile>