<?xml version="1.0"?>
<VTKFile type="UnstructuredGrid"  version="0.1"  >
<UnstructuredGrid>
<Piece  NumberOfPoints="81" NumberOfCells="128">
<Points>
<DataArray  type="Float64"  NumberOfComponents="3"  format="ascii">0 0 0  0.275 0 0  0.55 0 0  0.8250000000000001 0 0  1.1 0 0  1.375 0 0  1.65 0 0  1.925 0 0  2.2 0 0  0 0.05125 0  0.275 0.05125 0  0.55 0.05125 0  0.8250000000000001 0.05125 0  1.1 0.05125 0  1.375 0.05125 0  1.65 0.05125 0  1.925 0.05125 0  2.2 0.05125 0  0 0.1025 0  0.275 0.1025 0  0.55 0.1025 0  0.8250000000000001 0.1025 0  1.1 0.1025 0  1.375 0.1025 0  1.65 0.1025 0  1.925 0.1025 0  2.2 0.1025 0  0 0.15375 0  0.275 0.15375 0  0.55 0.15375 0  0.8250000000000001 0.15375 0  1.1 0.15375 0  1.375 0.15375 0  1.65 0.15375 0  1.925 0.15375 0  2.2 0.15375 0  0 0.205 0  0.275 0.205 0  0.55 0.205 0  0.8250000000000001 0.205 0  1.1 0.205 0  1.375 0.205 0  1.65 0.205 0  1.925 0.205 0  2.2 0.205 0  0 0.25625 0  0.275 0.25625 0  0.55 0.25625 0  0.8250000000000001 0.25625 0  1.1 0.25625 0  1.375 0.25625 0  1.65 0.25625 0  1.925 0.25625 0  2.2 0.25625 0  0 0.3075 0  0.275 0.3075 0  0.55 0.3075 0  0.8250000000000001 0.3075 0  1.1 0.3075 0  1.375 0.3075 0  1.65 0.3075 0  1.925 0.3075 0  2.2 0.3075 0  0 0.35875 0  0.275 0.35875 0  0.55 0.35875 0  0.8250000000000001 0.35875 0  1.1 0.35875 0  1.375 0.35875 0  1.65 0.35875 0  1.925 0.35875 0  2.2 0.35875 0  0 0.41 0  0.275 0.41 0  0.55 0.41 0  0.8250000000000001 0.41 0  1.1 0.41 0  1.375 0.41 0  1.65 0.41 0  1.925 0.41 0  2.2 0.41 0  </DataArray>
</Points>
<Cells>
<DataArray  type="UInt32"  Name="connectivity"  format="ascii">0 1 9  1 9 10  1 2 11  1 10 11  2 3 11  3 11 12  3 4 13  3 12 13  4 5 13  5 13 14  5 6 15  5 14 15  6 7 15  7 15 16  7 8 17  7 16 17  9 10 19  9 18 19  10 11 19  11 19 20  11 12 21  11 20 21  12 13 21  13 21 22  13 14 23  13 22 23  14 15 23  15 23 24  15 16 25  15 24 25  16 17 25  17 25 26  18 19 27  19 27 28  19 20 29  19 28 29  20 21 29  21 29 30  21 22 31  21 30 31  22 23 31  23 31 32  23 24 33  23 32 33  24 25 33  25 33 34  25 26 35  25 34 35  27 28 37  27 36 37  28 29 37  29 37 38  29 30 39  29 38 39  30 31 39  31 39 40  31 32 41  31 40 41  32 33 41  33 41 42  33 34 43  33 42 43  34 35 43  35 43 44  36 37 45  37 45 46  37 38 47  37 46 47  38 39 47  39 47 48  39 40 49  39 48 49  40 41 49  41 49 50  41 42 51  41 50 51  42 43 51  43 51 52  43 44 53  43 52 53  45 46 55  45 54 55  46 47 55  47 55 56  47 48 57  47 56 57  48 49 57  49 57 58  49 50 59  49 58 59  50 51 59  51 59 60  51 52 61  51 60 61  52 53 61  53 61 62  54 55 63  55 63 64  55 56 65  55 64 65  56 57 65  57 65 66  57 58 67  57 66 67  58 59 67  59 67 68  59 60 69  59 68 69  60 61 69  61 69 70  61 62 71  61 70 71  63 64 73  63 72 73  64 65 73  65 73 74  65 66 75  65 74 75  66 67 75  67 75 76  67 68 77  67 76 77  68 69 77  69 77 78  69 70 79  69 78 79  70 71 79  71 79 80  </DataArray>
<DataArray  type="UInt32"  Name="offsets"  format="ascii">3 6 9 12 15 18 21 24 27 30 33 36 39 42 45 48 51 54 57 60 63 66 69 72 75 78 81 84 87 90 93 96 99 102 105 108 111 114 117 120 123 126 129 132 135 138 141 144 147 150 153 156 159 162 165 168 171 174 177 180 183 186 189 192 195 198 201 204 207 210 213 216 219 222 225 228 231 234 237 240 243 246 249 252 255 258 261 264 267 270 273 276 279 282 285 288 291 294 297 300 303 306 309 312 315 318 321 324 327 330 333 336 339 342 345 348 351 354 357 360 363 366 369 372 375 378 381 384 </DataArray>
<DataArray  type="UInt8"  Name="types"  format="ascii">5 5 5 5 5 5 5 5 5 5 5 5 5 5 5 5 5 5 5 5 5 5 5 5 5 5 5 5 5 5 5 5 5 5 5 5 5 5 5 5 5 5 5 5 5 5 5 5 5 5 5 5 5 5 5 5 5 5 5 5 5 5 5 5 5 5 5 5 5 5 5 5 5 5 5 5 5 5 5 5 5 5 5 5 5 5 5 5 5 5 5 5 5 5 5 5 5 5 5 5 5 5 5 5 5 5 5 5 5 5 5 5 5 5 5 5 5 5 5 5 5 5 5 5 5 5 5 5 </DataArray>
</Cells>
<PointData  Vectors="f_16"> 
<DataArray  type="Float64"  Name="f_16"  NumberOfComponents="3" format="ascii">2.0489874518320861e-05 -4.4454932656655347e-09 0.0000000000000000e+00  -1.2013928303998551e-06 2.9917112641909194e-12 0.0000000000000000e+00  1.0433493242110465e-06 -9.6430466241582559e-10 0.0000000000000000e+00  -8.2925279831474381e-06 9.2095408974523212e-10 0.0000000000000000e+00  -2.9398938467188149e-06 2.8303997293420343e-11 0.0000000000000000e+00  -4.7736486704385531e-06 -7.4784807122451707e-10 0.0000000000000000e+00  -5.1850043758931308e-06 -4.4368891613238024e-10 0.0000000000000000e+00  -5.9218319742916978e-06 -5.6143250590188266e-10 0.0000000000000000e+00  -1.2384297307839224e-06 1.5388749870282876e-10 0.0000000000000000e+00  6.5624702210198194e-01 -3.2705905829502267e-10 0.0000000000000000e+00  6.5712486588193209e-01 -1.2812022121676348e-04 0.0000000000000000e+00  6.5836617329917224e-01 1.3346386569492368e-04 0.0000000000000000e+00  6.5820710098918267e-01 -3.3287077324217194e-05 0.0000000000000000e+00  6.5875909423307588e-01 -1.8658437876475581e-05 0.0000000000000000e+00  6.5862890289781784e-01 3.6447856783650543e-05 0.0000000000000000e+00  6.5833817441198761e-01 9.9733056634756651e-07 0.0000000000000000e+00  6.5749063430416155e-01 2.9963810402353945e-05 0.0000000000000000e+00  6.5749049526740100e-01 -4.1812444545193360e-05 0.0000000000000000e+00  1.1249841012332593e+00 1.0398922847843742e-09 0.0000000000000000e+00  1.1255494079441211e+00 -6.2118109438375185e-04 0.0000000000000000e+00  1.1238800729352059e+00 -1.5547793424315395e-04 0.0000000000000000e+00  1.1264633177519610e+00 -1.2932998671196940e-04 0.0000000000000000e+00  1.1256035294110711e+00 1.1368231292014179e-05 0.0000000000000000e+00  1.1252489359584872e+00 1.7831910405805872e-04 0.0000000000000000e+00  1.1251924191953722e+00 1.5060612268897824e-04 0.0000000000000000e+00  1.1246327115327930e+00 2.1784471275171756e-04 0.0000000000000000e+00  1.1241396226675324e+00 1.4047861673034833e-04 0.0000000000000000e+00  1.4062394803364326e+00 -3.6148889926749019e-11 0.0000000000000000e+00  1.4055866720305528e+00 -1.6489525469400563e-04 0.0000000000000000e+00  1.4068530327999687e+00 -1.4280105960968271e-04 0.0000000000000000e+00  1.4047168550475206e+00 -1.7955389831652481e-04 0.0000000000000000e+00  1.4071845361175304e+00 -1.8095785413239137e-04 0.0000000000000000e+00  1.4061203405944307e+00 9.7438285750846363e-05 0.0000000000000000e+00  1.4057887219816820e+00 1.6304210415343554e-04 0.0000000000000000e+00  1.4056439968573324e+00 2.1595749149710627e-04 0.0000000000000000e+00  1.4055388137556697e+00 1.3078170091364701e-04 0.0000000000000000e+00  1.4999818424980806e+00 8.8232673044106966e-10 0.0000000000000000e+00  1.5000779700717346e+00 -1.5728796115963329e-04 0.0000000000000000e+00  1.4989030169143562e+00 -1.8385275139854384e-04 0.0000000000000000e+00  1.4995645819893055e+00 -1.2595491369174057e-04 0.0000000000000000e+00  1.4973295799672173e+00 -6.3843423413001212e-05 0.0000000000000000e+00  1.4993511843337939e+00 8.5034527791737899e-05 0.0000000000000000e+00  1.4985529756528431e+00 2.8534348956714054e-04 0.0000000000000000e+00  1.4981067895447300e+00 4.6413760015436706e-04 0.0000000000000000e+00  1.4981608020258479e+00 3.4796375932409857e-04 0.0000000000000000e+00  1.4062361156106571e+00 5.8708244196815975e-10 0.0000000000000000e+00  1.4054944871056827e+00 -5.3764057066138303e-05 0.0000000000000000e+00  1.4059486819767253e+00 -2.4118631829649518e-04 0.0000000000000000e+00  1.4049461957763800e+00 -9.4382873086881579e-05 0.0000000000000000e+00  1.4064526835311821e+00 6.5560792230885456e-05 0.0000000000000000e+00  1.4036922458678751e+00 5.9833811451467104e-05 0.0000000000000000e+00  1.4066794781406309e+00 2.0759687750168771e-04 0.0000000000000000e+00  1.4051882012289847e+00 3.5684610113366754e-04 0.0000000000000000e+00  1.4050536617427969e+00 3.6651784544842645e-04 0.0000000000000000e+00  1.1249860146775212e+00 -1.1419511914232595e-10 0.0000000000000000e+00  1.1252806463156297e+00 1.9186146542128529e-04 0.0000000000000000e+00  1.1248877563090063e+00 -7.4286314733995864e-05 0.0000000000000000e+00  1.1244873195583445e+00 -7.6106658330331363e-05 0.0000000000000000e+00  1.1240332637911039e+00 -2.3631148707352358e-05 0.0000000000000000e+00  1.1247833080743554e+00 -5.7243956490713502e-06 0.0000000000000000e+00  1.1225845749576224e+00 2.1295976837398342e-04 0.0000000000000000e+00  1.1250690591264574e+00 4.3455058889826513e-04 0.0000000000000000e+00  1.1240788545464970e+00 5.2731739834986342e-04 0.0000000000000000e+00  6.5624143949624647e-01 -2.9311948076187618e-10 0.0000000000000000e+00  6.5587987091665867e-01 2.2425033154330294e-05 0.0000000000000000e+00  6.5653292033737065e-01 -2.0439988901811381e-04 0.0000000000000000e+00  6.5619439069679153e-01 -1.9935975030331174e-05 0.0000000000000000e+00  6.5663731149852722e-01 -2.1327001590188106e-05 0.0000000000000000e+00  6.5571563255908449e-01 3.8639116083051314e-05 0.0000000000000000e+00  6.5788075973655868e-01 2.2197943677128163e-04 0.0000000000000000e+00  6.5575210044111432e-01 1.7417431754122856e-04 0.0000000000000000e+00  6.5985183634427602e-01 5.7270710120882668e-04 0.0000000000000000e+00  -7.0282058162937297e-06 -7.9240184560765238e-10 0.0000000000000000e+00  -7.2266564191512134e-06 -5.1285017568614569e-10 0.0000000000000000e+00  -4.6033137524727498e-06 -2.0564890721217542e-10 0.0000000000000000e+00  -6.2739860820117506e-06 8.6831633566424678e-10 0.0000000000000000e+00  -2.2749898815093364e-06 1.0790324446662353e-09 0.0000000000000000e+00  -6.9282842512420328e-06 -1.4355083626987664e-09 0.0000000000000000e+00  -7.0871630930445712e-06 -3.7973096366081366e-10 0.0000000000000000e+00  4.7872616526649489e-07 4.3566508343574426e-10 0.0000000000000000e+00  -1.0283076214574734e-05 -4.5284037605820858e-09 0.0000000000000000e+00  </DataArray> 
</PointData> 
</Piece>
</UnstructuredGrid>
</VTKFile>