<?xml version="1.0"?>
<VTKFile type="UnstructuredGrid"  version="0.1"  >
<UnstructuredGrid>
<Piece  NumberOfPoints="81" NumberOfCells="128">
<Points>
<DataArray  type="Float64"  NumberOfComponents="3"  format="ascii">0 0 0  0.275 0 0  0.55 0 0  0.8250000000000001 0 0  1.1 0 0  1.375 0 0  1.65 0 0  1.925 0 0  2.2 0 0  0 0.05125 0  0.275 0.05125 0  0.55 0.05125 0  0.8250000000000001 0.05125 0  1.1 0.05125 0  1.375 0.05125 0  1.65 0.05125 0  1.925 0.05125 0  2.2 0.05125 0  0 0.1025 0  0.275 0.1025 0  0.55 0.1025 0  0.8250000000000001 0.1025 0  1.1 0.1025 0  1.375 0.1025 0  1.65 0.1025 0  1.925 0.1025 0  2.2 0.1025 0  0 0.15375 0  0.275 0.15375 0  0.55 0.15375 0  0.8250000000000001 0.15375 0  1.1 0.15375 0  1.375 0.15375 0  1.65 0.15375 0  1.925 0.15375 0  2.2 0.15375 0  0 0.205 0  0.275 0.205 0  0.55 0.205 0  0.8250000000000001 0.205 0  1.1 0.205 0  1.375 0.205 0  1.65 0.205 0  1.925 0.205 0  2.2 0.205 0  0 0.25625 0  0.275 0.25625 0  0.55 0.25625 0  0.8250000000000001 0.25625 0  1.1 0.25625 0  1.375 0.25625 0  1.65 0.25625 0  1.925 0.25625 0  2.2 0.25625 0  0 0.3075 0  0.275 0.3075 0  0.55 0.3075 0  0.8250000000000001 0.3075 0  1.1 0.3075 0  1.375 0.3075 0  1.65 0.3075 0  1.925 0.3075 0  2.2 0.3075 0  0 0.35875 0  0.275 0.35875 0  0.55 0.35875 0  0.8250000000000001 0.35875 0  1.1 0.35875 0  1.375 0.35875 0  1.65 0.35875 0  1.925 0.35875 0  2.2 0.35875 0  0 0.41 0  0.275 0.41 0  0.55 0.41 0  0.8250000000000001 0.41 0  1.1 0.41 0  1.375 0.41 0  1.65 0.41 0  1.925 0.41 0  2.2 0.41 0  </DataArray>
</Points>
<Cells>
<DataArray  type="UInt32"  Name="connectivity"  format="ascii">0 1 9  1 9 10  1 2 11  1 10 11  2 3 11  3 11 12  3 4 13  3 12 13  4 5 13  5 13 14  5 6 15  5 14 15  6 7 15  7 15 16  7 8 17  7 16 17  9 10 19  9 18 19  10 11 19  11 19 20  11 12 21  11 20 21  12 13 21  13 21 22  13 14 23  13 22 23  14 15 23  15 23 24  15 16 25  15 24 25  16 17 25  17 25 26  18 19 27  19 27 28  19 20 29  19 28 29  20 21 29  21 29 30  21 22 31  21 30 31  22 23 31  23 31 32  23 24 33  23 32 33  24 25 33  25 33 34  25 26 35  25 34 35  27 28 37  27 36 37  28 29 37  29 37 38  29 30 39  29 38 39  30 31 39  31 39 40  31 32 41  31 40 41  32 33 41  33 41 42  33 34 43  33 42 43  34 35 43  35 43 44  36 37 45  37 45 46  37 38 47  37 46 47  38 39 47  39 47 48  39 40 49  39 48 49  40 41 49  41 49 50  41 42 51  41 50 51  42 43 51  43 51 52  43 44 53  43 52 53  45 46 55  45 54 55  46 47 55  47 55 56  47 48 57  47 56 57  48 49 57  49 57 58  49 50 59  49 58 59  50 51 59  51 59 60  51 52 61  51 60 61  52 53 61  53 61 62  54 55 63  55 63 64  55 56 65  55 64 65  56 57 65  57 65 66  57 58 67  57 66 67  58 59 67  59 67 68  59 60 69  59 68 69  60 61 69  61 69 70  61 62 71  61 70 71  63 64 73  63 72 73  64 65 73  65 73 74  65 66 75  65 74 75  66 67 75  67 75 76  67 68 77  67 76 77  68 69 77  69 77 78  69 70 79  69 78 79  70 71 79  71 79 80  </DataArray>
<DataArray  type="UInt32"  Name="offsets"  format="ascii">3 6 9 12 15 18 21 24 27 30 33 36 39 42 45 48 51 54 57 60 63 66 69 72 75 78 81 84 87 90 93 96 99 102 105 108 111 114 117 120 123 126 129 132 135 138 141 144 147 150 153 156 159 162 165 168 171 174 177 180 183 186 189 192 195 198 201 204 207 210 213 216 219 222 225 228 231 234 237 240 243 246 249 252 255 258 261 264 267 270 273 276 279 282 285 288 291 294 297 300 303 306 309 312 315 318 321 324 327 330 333 336 339 342 345 348 351 354 357 360 363 366 369 372 375 378 381 384 </DataArray>
<DataArray  type="UInt8"  Name="types"  format="ascii">5 5 5 5 5 5 5 5 5 5 5 5 5 5 5 5 5 5 5 5 5 5 5 5 5 5 5 5 5 5 5 5 5 5 5 5 5 5 5 5 5 5 5 5 5 5 5 5 5 5 5 5 5 5 5 5 5 5 5 5 5 5 5 5 5 5 5 5 5 5 5 5 5 5 5 5 5 5 5 5 5 5 5 5 5 5 5 5 5 5 5 5 5 5 5 5 5 5 5 5 5 5 5 5 5 5 5 5 5 5 5 5 5 5 5 5 5 5 5 5 5 5 5 5 5 5 5 5 </DataArray>
</Cells>
<PointData  Vectors="f_16"> 
<DataArray  type="Float64"  Name="f_16"  NumberOfComponents="3" format="ascii">2.0489732748693044e-05 -4.3932938148557579e-09 0.0000000000000000e+00  -1.2012193190935083e-06 -3.1105835684353051e-11 0.0000000000000000e+00  1.0438269938800118e-06 -9.6935534654576926e-10 0.0000000000000000e+00  -8.2928616428538933e-06 9.9874505581006013e-10 0.0000000000000000e+00  -2.9405901383115420e-06 -2.8785293319463132e-11 0.0000000000000000e+00  -4.7734468123769948e-06 -8.2986490018506572e-10 0.0000000000000000e+00  -5.1845803951965045e-06 -3.5314174439962838e-10 0.0000000000000000e+00  -5.9225956617873426e-06 -4.5058098523854442e-10 0.0000000000000000e+00  -1.2398773234727814e-06 1.9461568535946403e-10 0.0000000000000000e+00  6.5624702215824482e-01 -2.8164931458112360e-10 0.0000000000000000e+00  6.5712404310200101e-01 -1.2738010883017154e-04 0.0000000000000000e+00  6.5837039311047652e-01 1.3432886916724034e-04 0.0000000000000000e+00  6.5820264192988942e-01 -3.2474890971299134e-05 0.0000000000000000e+00  6.5877121085331325e-01 -2.0592459712931214e-05 0.0000000000000000e+00  6.5862978325120880e-01 3.8167356382752887e-05 0.0000000000000000e+00  6.5835406640645489e-01 1.6031796003755133e-06 0.0000000000000000e+00  6.5750466190588941e-01 2.6914093480127373e-05 0.0000000000000000e+00  6.5750709321193768e-01 -4.2486424921975169e-05 0.0000000000000000e+00  1.1249841009967543e+00 9.1788449860412199e-10 0.0000000000000000e+00  1.1255454205344360e+00 -6.1849114768906235e-04 0.0000000000000000e+00  1.1238749841112174e+00 -1.5458199732394922e-04 0.0000000000000000e+00  1.1264603645669067e+00 -1.3549408853328235e-04 0.0000000000000000e+00  1.1256199626053558e+00 1.1164111592029000e-05 0.0000000000000000e+00  1.1252546156803518e+00 1.8746299483476733e-04 0.0000000000000000e+00  1.1251917783568444e+00 1.4827802072552476e-04 0.0000000000000000e+00  1.1246437146425166e+00 2.0892314471109650e-04 0.0000000000000000e+00  1.1241621434235094e+00 1.4635571504414326e-04 0.0000000000000000e+00  1.4062394803959894e+00 -1.5697128010406528e-10 0.0000000000000000e+00  1.4055750931896325e+00 -1.6129562886750982e-04 0.0000000000000000e+00  1.4068348584400956e+00 -1.4664592822355283e-04 0.0000000000000000e+00  1.4047447464260590e+00 -1.8702716835987366e-04 0.0000000000000000e+00  1.4072228756608831e+00 -1.7575621961571621e-04 0.0000000000000000e+00  1.4060947071031291e+00 1.0199186427632037e-04 0.0000000000000000e+00  1.4057747136226717e+00 1.5620927192203145e-04 0.0000000000000000e+00  1.4056818459331961e+00 2.1140761685074108e-04 0.0000000000000000e+00  1.4055733611179522e+00 1.3277618522667675e-04 0.0000000000000000e+00  1.4999818420683626e+00 8.8283154522883807e-10 0.0000000000000000e+00  1.5000530332600990e+00 -1.5740373483606889e-04 0.0000000000000000e+00  1.4988903661271598e+00 -1.8383092519511332e-04 0.0000000000000000e+00  1.4996144627117030e+00 -1.2696689980135843e-04 0.0000000000000000e+00  1.4973568558305299e+00 -6.5914755104959469e-05 0.0000000000000000e+00  1.4992893721791247e+00 8.3822156128975049e-05 0.0000000000000000e+00  1.4985377946392069e+00 2.8262759508635446e-04 0.0000000000000000e+00  1.4981608657286301e+00 4.5856006717782840e-04 0.0000000000000000e+00  1.4981886213827931e+00 3.4330111910055408e-04 0.0000000000000000e+00  1.4062361156427208e+00 7.1457110739646942e-10 0.0000000000000000e+00  1.4054827042290932e+00 -5.7552331732462694e-05 0.0000000000000000e+00  1.4059318121099591e+00 -2.3698394918008874e-04 0.0000000000000000e+00  1.4049721068729948e+00 -8.8338249771358497e-05 0.0000000000000000e+00  1.4064853303333007e+00 5.6826877694707733e-05 0.0000000000000000e+00  1.4036607846904841e+00 5.1815755137924228e-05 0.0000000000000000e+00  1.4066548426191563e+00 2.0930090240761773e-04 0.0000000000000000e+00  1.4052038126640025e+00 3.5252304134410841e-04 0.0000000000000000e+00  1.4050561111086008e+00 3.5642501403346580e-04 0.0000000000000000e+00  1.1249860143592405e+00 2.0872230310217338e-11 0.0000000000000000e+00  1.1252766739372997e+00 1.8897858152545975e-04 0.0000000000000000e+00  1.1248817406733134e+00 -7.5455194798318943e-05 0.0000000000000000e+00  1.1244828638883841e+00 -7.0755493056426263e-05 0.0000000000000000e+00  1.1240425782246612e+00 -2.5358183606003468e-05 0.0000000000000000e+00  1.1247758997122879e+00 -1.7311275673398941e-05 0.0000000000000000e+00  1.1225611321665272e+00 2.1142019557044342e-04 0.0000000000000000e+00  1.1250400314601943e+00 4.3739613339647664e-04 0.0000000000000000e+00  1.1240404782782409e+00 5.1579016167867546e-04 0.0000000000000000e+00  6.5624143954553515e-01 -3.2634841034254559e-10 0.0000000000000000e+00  6.5587896076751129e-01 2.1585673106260061e-05 0.0000000000000000e+00  6.5653614389255355e-01 -2.0537196672346342e-04 0.0000000000000000e+00  6.5618660166450382e-01 -2.1007686417742786e-05 0.0000000000000000e+00  6.5664268202216958e-01 -2.0123981144361096e-05 0.0000000000000000e+00  6.5570196742176567e-01 3.5954374234181081e-05 0.0000000000000000e+00  6.5787024722897325e-01 2.1996614935253909e-04 0.0000000000000000e+00  6.5572348856813611e-01 1.7529394353282512e-04 0.0000000000000000e+00  6.5980819367594501e-01 5.7154817362854108e-04 0.0000000000000000e+00  -7.0283903585483364e-06 -8.5754047892380265e-10 0.0000000000000000e+00  -7.2264842157874647e-06 -4.8873625168072187e-10 0.0000000000000000e+00  -4.6028529983927103e-06 -2.3221890204645669e-10 0.0000000000000000e+00  -6.2743157708054636e-06 7.9756223746802427e-10 0.0000000000000000e+00  -2.2756678322652614e-06 1.1431631817485578e-09 0.0000000000000000e+00  -6.9279367575185913e-06 -1.3394493465412710e-09 0.0000000000000000e+00  -7.0865002588165945e-06 -4.7015232227552482e-10 0.0000000000000000e+00  4.7799813545698034e-07 3.1951402926660123e-10 0.0000000000000000e+00  -1.0284177288162322e-05 -4.5211213739479146e-09 0.0000000000000000e+00  </DataArray> 
</PointData> 
</Piece>
</UnstructuredGrid>
</VTKFile>