<?xml version="1.0"?>
<VTKFile type="UnstructuredGrid"  version="0.1"  >
<UnstructuredGrid>
<Piece  NumberOfPoints="81" NumberOfCells="128">
<Points>
<DataArray  type="Float64"  NumberOfComponents="3"  format="ascii">0 0 0  0.275 0 0  0.55 0 0  0.8250000000000001 0 0  1.1 0 0  1.375 0 0  1.65 0 0  1.925 0 0  2.2 0 0  0 0.05125 0  0.275 0.05125 0  0.55 0.05125 0  0.8250000000000001 0.05125 0  1.1 0.05125 0  1.375 0.05125 0  1.65 0.05125 0  1.925 0.05125 0  2.2 0.05125 0  0 0.1025 0  0.275 0.1025 0  0.55 0.1025 0  0.8250000000000001 0.1025 0  1.1 0.1025 0  1.375 0.1025 0  1.65 0.1025 0  1.925 0.1025 0  2.2 0.1025 0  0 0.15375 0  0.275 0.15375 0  0.55 0.15375 0  0.8250000000000001 0.15375 0  1.1 0.15375 0  1.375 0.15375 0  1.65 0.15375 0  1.925 0.15375 0  2.2 0.15375 0  0 0.205 0  0.275 0.205 0  0.55 0.205 0  0.8250000000000001 0.205 0  1.1 0.205 0  1.375 0.205 0  1.65 0.205 0  1.925 0.205 0  2.2 0.205 0  0 0.25625 0  0.275 0.25625 0  0.55 0.25625 0  0.8250000000000001 0.25625 0  1.1 0.25625 0  1.375 0.25625 0  1.65 0.25625 0  1.925 0.25625 0  2.2 0.25625 0  0 0.3075 0  0.275 0.3075 0  0.55 0.3075 0  0.8250000000000001 0.3075 0  1.1 0.3075 0  1.375 0.3075 0  1.65 0.3075 0  1.925 0.3075 0  2.2 0.3075 0  0 0.35875 0  0.275 0.35875 0  0.55 0.35875 0  0.8250000000000001 0.35875 0  1.1 0.35875 0  1.375 0.35875 0  1.65 0.35875 0  1.925 0.35875 0  2.2 0.35875 0  0 0.41 0  0.275 0.41 0  0.55 0.41 0  0.8250000000000001 0.41 0  1.1 0.41 0  1.375 0.41 0  1.65 0.41 0  1.925 0.41 0  2.2 0.41 0  </DataArray>
</Points>
<Cells>
<DataArray  type="UInt32"  Name="connectivity"  format="ascii">0 1 9  1 9 10  1 2 11  1 10 11  2 3 11  3 11 12  3 4 13  3 12 13  4 5 13  5 13 14  5 6 15  5 14 15  6 7 15  7 15 16  7 8 17  7 16 17  9 10 19  9 18 19  10 11 19  11 19 20  11 12 21  11 20 21  12 13 21  13 21 22  13 14 23  13 22 23  14 15 23  15 23 24  15 16 25  15 24 25  16 17 25  17 25 26  18 19 27  19 27 28  19 20 29  19 28 29  20 21 29  21 29 30  21 22 31  21 30 31  22 23 31  23 31 32  23 24 33  23 32 33  24 25 33  25 33 34  25 26 35  25 34 35  27 28 37  27 36 37  28 29 37  29 37 38  29 30 39  29 38 39  30 31 39  31 39 40  31 32 41  31 40 41  32 33 41  33 41 42  33 34 43  33 42 43  34 35 43  35 43 44  36 37 45  37 45 46  37 38 47  37 46 47  38 39 47  39 47 48  39 40 49  39 48 49  40 41 49  41 49 50  41 42 51  41 50 51  42 43 51  43 51 52  43 44 53  43 52 53  45 46 55  45 54 55  46 47 55  47 55 56  47 48 57  47 56 57  48 49 57  49 57 58  49 50 59  49 58 59  50 51 59  51 59 60  51 52 61  51 60 61  52 53 61  53 61 62  54 55 63  55 63 64  55 56 65  55 64 65  56 57 65  57 65 66  57 58 67  57 66 67  58 59 67  59 67 68  59 60 69  59 68 69  60 61 69  61 69 70  61 62 71  61 70 71  63 64 73  63 72 73  64 65 73  65 73 74  65 66 75  65 74 75  66 67 75  67 75 76  67 68 77  67 76 77  68 69 77  69 77 78  69 70 79  69 78 79  70 71 79  71 79 80  </DataArray>
<DataArray  type="UInt32"  Name="offsets"  format="ascii">3 6 9 12 15 18 21 24 27 30 33 36 39 42 45 48 51 54 57 60 63 66 69 72 75 78 81 84 87 90 93 96 99 102 105 108 111 114 117 120 123 126 129 132 135 138 141 144 147 150 153 156 159 162 165 168 171 174 177 180 183 186 189 192 195 198 201 204 207 210 213 216 219 222 225 228 231 234 237 240 243 246 249 252 255 258 261 264 267 270 273 276 279 282 285 288 291 294 297 300 303 306 309 312 315 318 321 324 327 330 333 336 339 342 345 348 351 354 357 360 363 366 369 372 375 378 381 384 </DataArray>
<DataArray  type="UInt8"  Name="types"  format="ascii">5 5 5 5 5 5 5 5 5 5 5 5 5 5 5 5 5 5 5 5 5 5 5 5 5 5 5 5 5 5 5 5 5 5 5 5 5 5 5 5 5 5 5 5 5 5 5 5 5 5 5 5 5 5 5 5 5 5 5 5 5 5 5 5 5 5 5 5 5 5 5 5 5 5 5 5 5 5 5 5 5 5 5 5 5 5 5 5 5 5 5 5 5 5 5 5 5 5 5 5 5 5 5 5 5 5 5 5 5 5 5 5 5 5 5 5 5 5 5 5 5 5 5 5 5 5 5 5 </DataArray>
</Cells>
<PointData  Vectors="f_16"> 
<DataArray  type="Float64"  Name="f_16"  NumberOfComponents="3" format="ascii">2.9441212592559637e-05 -1.3998325720903377e-06 0.0000000000000000e+00  2.5174400910069849e-07 -9.1187724792333002e-07 0.0000000000000000e+00  -2.5916656870037170e-06 5.1354363248993140e-07 0.0000000000000000e+00  -7.8697446838685287e-06 2.5851211879401325e-09 0.0000000000000000e+00  -6.0903691440453053e-06 -5.3828126176509059e-09 0.0000000000000000e+00  -6.0346504373385249e-06 -1.6524131581411954e-07 0.0000000000000000e+00  -1.0286969041342882e-05 -8.2416089038158378e-08 0.0000000000000000e+00  -7.1727788711406967e-06 -1.3435920445689472e-07 0.0000000000000000e+00  -5.5880645959471407e-06 -6.7159323941432089e-08 0.0000000000000000e+00  6.5625047568696637e-01 -1.1308035995836604e-06 0.0000000000000000e+00  7.7285905175333214e-01 -1.0920467619852815e-01 0.0000000000000000e+00  1.0854361828792232e+00 5.8410225278944156e-02 0.0000000000000000e+00  1.0270353747573300e+00 -7.3142362152281305e-03 0.0000000000000000e+00  1.0657058394022361e+00 6.1729183772542134e-03 0.0000000000000000e+00  1.0638002656581280e+00 -2.0514240449825303e-03 0.0000000000000000e+00  1.0765917481773688e+00 4.6743810872770224e-03 0.0000000000000000e+00  1.0771713706399209e+00 1.4129952770039927e-03 0.0000000000000000e+00  1.0931975666154259e+00 1.3423469252252464e-02 0.0000000000000000e+00  1.1249891673973060e+00 -7.0842085695054632e-07 0.0000000000000000e+00  1.0364795140709184e+00 -1.6391626607749102e-01 0.0000000000000000e+00  1.1352163708656395e+00 7.2454099081185946e-03 0.0000000000000000e+00  1.0189957247380477e+00 -2.1789076848854592e-02 0.0000000000000000e+00  1.1261808087568410e+00 7.7350292349928911e-04 0.0000000000000000e+00  1.0556214264174226e+00 -6.7402842643105448e-03 0.0000000000000000e+00  1.1202503116609712e+00 1.0823766768708117e-03 0.0000000000000000e+00  1.0663415165832721e+00 -5.3619916480791572e-03 0.0000000000000000e+00  1.1179779523320506e+00 6.7458571719339697e-03 0.0000000000000000e+00  1.4062421578850244e+00 -2.8490746114153579e-07 0.0000000000000000e+00  1.2200211650941777e+00 -7.2657886017627502e-02 0.0000000000000000e+00  1.1380997393541501e+00 2.8000308900331360e-02 0.0000000000000000e+00  1.0556445641082308e+00 -3.0987971830022326e-03 0.0000000000000000e+00  1.1128703439840197e+00 4.9854056202717186e-03 0.0000000000000000e+00  1.0824459621019169e+00 1.2397783208563651e-03 0.0000000000000000e+00  1.1071434983788855e+00 2.9658820502956747e-03 0.0000000000000000e+00  1.0824903205659593e+00 1.3024886552960762e-03 0.0000000000000000e+00  1.1138375950645103e+00 4.2832901486005749e-03 0.0000000000000000e+00  1.4999877639929402e+00 -1.3642150963988998e-10 0.0000000000000000e+00  1.3266708124982909e+00 -1.7213076361037038e-04 0.0000000000000000e+00  1.1316948965092115e+00 -1.5514061910866656e-05 0.0000000000000000e+00  1.0565276583768715e+00 -3.6542396526048294e-05 0.0000000000000000e+00  1.1125415376193224e+00 4.6449911403077983e-05 0.0000000000000000e+00  1.0836848727910791e+00 8.5633135650511465e-05 0.0000000000000000e+00  1.1076737957695002e+00 5.9931343873312867e-05 0.0000000000000000e+00  1.0816420035687546e+00 -5.6397488499411206e-05 0.0000000000000000e+00  1.1133902139820679e+00 -6.6368424166614808e-05 0.0000000000000000e+00  1.4062400676757960e+00 2.3404438209760648e-07 0.0000000000000000e+00  1.2199455890962139e+00 7.2509762788944179e-02 0.0000000000000000e+00  1.1373030940724631e+00 -2.8071600304168526e-02 0.0000000000000000e+00  1.0567638758465172e+00 3.0834913765621073e-03 0.0000000000000000e+00  1.1124338558148188e+00 -4.7523858395858874e-03 0.0000000000000000e+00  1.0812080448413379e+00 -1.2390467743001075e-03 0.0000000000000000e+00  1.1096609087884051e+00 -2.8057046119387358e-03 0.0000000000000000e+00  1.0822326537470597e+00 -1.4031362030976580e-03 0.0000000000000000e+00  1.1131440862545490e+00 -4.6177567949991791e-03 0.0000000000000000e+00  1.1249911279047717e+00 3.8579173876425037e-07 0.0000000000000000e+00  1.0361150094148042e+00 1.6372441204437155e-01 0.0000000000000000e+00  1.1371457146536927e+00 -7.2484182200773881e-03 0.0000000000000000e+00  1.0175169242108653e+00 2.1763425412757127e-02 0.0000000000000000e+00  1.1265269334311119e+00 -7.4865667590187938e-04 0.0000000000000000e+00  1.0564086035178399e+00 6.6584599428081374e-03 0.0000000000000000e+00  1.1188923214234436e+00 -1.0550671957257807e-03 0.0000000000000000e+00  1.0681738648703809e+00 5.4655762717184158e-03 0.0000000000000000e+00  1.1168177963244807e+00 -6.7641822652507021e-03 0.0000000000000000e+00  6.5624426134552427e-01 7.2557200734885473e-07 0.0000000000000000e+00  7.7236321827656318e-01 1.0916609852763932e-01 0.0000000000000000e+00  1.0846669319161404e+00 -5.8394704140348384e-02 0.0000000000000000e+00  1.0269188518146177e+00 7.3471008104563128e-03 0.0000000000000000e+00  1.0657453590932433e+00 -6.2449415139716954e-03 0.0000000000000000e+00  1.0632601312329235e+00 2.0552387457063708e-03 0.0000000000000000e+00  1.0768763980424774e+00 -4.6826498837793688e-03 0.0000000000000000e+00  1.0750838948250769e+00 -1.3561615766476375e-03 0.0000000000000000e+00  1.0935530547080123e+00 -1.3258994044385233e-02 0.0000000000000000e+00  -4.0664763595072781e-06 6.0487014404606010e-07 0.0000000000000000e+00  -6.2302353360805600e-06 1.0758025092708183e-06 0.0000000000000000e+00  -9.0841143985205076e-06 -4.6577987820313397e-07 0.0000000000000000e+00  -7.7814560435290617e-06 -4.5308925819844061e-08 0.0000000000000000e+00  -6.8009806702081966e-06 1.7037783570708071e-07 0.0000000000000000e+00  -9.2259785734511064e-06 8.6309752948126168e-08 0.0000000000000000e+00  -1.2759122417515104e-05 -2.2341922888813573e-08 0.0000000000000000e+00  1.1968784183628193e-06 5.4499012594029249e-08 0.0000000000000000e+00  -9.9829784499339936e-06 6.8138236800546436e-08 0.0000000000000000e+00  </DataArray> 
</PointData> 
</Piece>
</UnstructuredGrid>
</VTKFile>