<?xml version="1.0"?>
<VTKFile type="UnstructuredGrid"  version="0.1"  >
<UnstructuredGrid>
<Piece  NumberOfPoints="81" NumberOfCells="128">
<Points>
<DataArray  type="Float64"  NumberOfComponents="3"  format="ascii">0 0 0  0.275 0 0  0.55 0 0  0.8250000000000001 0 0  1.1 0 0  1.375 0 0  1.65 0 0  1.925 0 0  2.2 0 0  0 0.05125 0  0.275 0.05125 0  0.55 0.05125 0  0.8250000000000001 0.05125 0  1.1 0.05125 0  1.375 0.05125 0  1.65 0.05125 0  1.925 0.05125 0  2.2 0.05125 0  0 0.1025 0  0.275 0.1025 0  0.55 0.1025 0  0.8250000000000001 0.1025 0  1.1 0.1025 0  1.375 0.1025 0  1.65 0.1025 0  1.925 0.1025 0  2.2 0.1025 0  0 0.15375 0  0.275 0.15375 0  0.55 0.15375 0  0.8250000000000001 0.15375 0  1.1 0.15375 0  1.375 0.15375 0  1.65 0.15375 0  1.925 0.15375 0  2.2 0.15375 0  0 0.205 0  0.275 0.205 0  0.55 0.205 0  0.8250000000000001 0.205 0  1.1 0.205 0  1.375 0.205 0  1.65 0.205 0  1.925 0.205 0  2.2 0.205 0  0 0.25625 0  0.275 0.25625 0  0.55 0.25625 0  0.8250000000000001 0.25625 0  1.1 0.25625 0  1.375 0.25625 0  1.65 0.25625 0  1.925 0.25625 0  2.2 0.25625 0  0 0.3075 0  0.275 0.3075 0  0.55 0.3075 0  0.8250000000000001 0.3075 0  1.1 0.3075 0  1.375 0.3075 0  1.65 0.3075 0  1.925 0.3075 0  2.2 0.3075 0  0 0.35875 0  0.275 0.35875 0  0.55 0.35875 0  0.8250000000000001 0.35875 0  1.1 0.35875 0  1.375 0.35875 0  1.65 0.35875 0  1.925 0.35875 0  2.2 0.35875 0  0 0.41 0  0.275 0.41 0  0.55 0.41 0  0.8250000000000001 0.41 0  1.1 0.41 0  1.375 0.41 0  1.65 0.41 0  1.925 0.41 0  2.2 0.41 0  </DataArray>
</Points>
<Cells>
<DataArray  type="UInt32"  Name="connectivity"  format="ascii">0 1 9  1 9 10  1 2 11  1 10 11  2 3 11  3 11 12  3 4 13  3 12 13  4 5 13  5 13 14  5 6 15  5 14 15  6 7 15  7 15 16  7 8 17  7 16 17  9 10 19  9 18 19  10 11 19  11 19 20  11 12 21  11 20 21  12 13 21  13 21 22  13 14 23  13 22 23  14 15 23  15 23 24  15 16 25  15 24 25  16 17 25  17 25 26  18 19 27  19 27 28  19 20 29  19 28 29  20 21 29  21 29 30  21 22 31  21 30 31  22 23 31  23 31 32  23 24 33  23 32 33  24 25 33  25 33 34  25 26 35  25 34 35  27 28 37  27 36 37  28 29 37  29 37 38  29 30 39  29 38 39  30 31 39  31 39 40  31 32 41  31 40 41  32 33 41  33 41 42  33 34 43  33 42 43  34 35 43  35 43 44  36 37 45  37 45 46  37 38 47  37 46 47  38 39 47  39 47 48  39 40 49  39 48 49  40 41 49  41 49 50  41 42 51  41 50 51  42 43 51  43 51 52  43 44 53  43 52 53  45 46 55  45 54 55  46 47 55  47 55 56  47 48 57  47 56 57  48 49 57  49 57 58  49 50 59  49 58 59  50 51 59  51 59 60  51 52 61  51 60 61  52 53 61  53 61 62  54 55 63  55 63 64  55 56 65  55 64 65  56 57 65  57 65 66  57 58 67  57 66 67  58 59 67  59 67 68  59 60 69  59 68 69  60 61 69  61 69 70  61 62 71  61 70 71  63 64 73  63 72 73  64 65 73  65 73 74  65 66 75  65 74 75  66 67 75  67 75 76  67 68 77  67 76 77  68 69 77  69 77 78  69 70 79  69 78 79  70 71 79  71 79 80  </DataArray>
<DataArray  type="UInt32"  Name="offsets"  format="ascii">3 6 9 12 15 18 21 24 27 30 33 36 39 42 45 48 51 54 57 60 63 66 69 72 75 78 81 84 87 90 93 96 99 102 105 108 111 114 117 120 123 126 129 132 135 138 141 144 147 150 153 156 159 162 165 168 171 174 177 180 183 186 189 192 195 198 201 204 207 210 213 216 219 222 225 228 231 234 237 240 243 246 249 252 255 258 261 264 267 270 273 276 279 282 285 288 291 294 297 300 303 306 309 312 315 318 321 324 327 330 333 336 339 342 345 348 351 354 357 360 363 366 369 372 375 378 381 384 </DataArray>
<DataArray  type="UInt8"  Name="types"  format="ascii">5 5 5 5 5 5 5 5 5 5 5 5 5 5 5 5 5 5 5 5 5 5 5 5 5 5 5 5 5 5 5 5 5 5 5 5 5 5 5 5 5 5 5 5 5 5 5 5 5 5 5 5 5 5 5 5 5 5 5 5 5 5 5 5 5 5 5 5 5 5 5 5 5 5 5 5 5 5 5 5 5 5 5 5 5 5 5 5 5 5 5 5 5 5 5 5 5 5 5 5 5 5 5 5 5 5 5 5 5 5 5 5 5 5 5 5 5 5 5 5 5 5 5 5 5 5 5 5 </DataArray>
</Cells>
<PointData  Vectors="f_16"> 
<DataArray  type="Float64"  Name="f_16"  NumberOfComponents="3" format="ascii">2.0488772523545403e-05 -4.1958920692345841e-09 0.0000000000000000e+00  -1.2004531942287413e-06 -1.2690215383168538e-10 0.0000000000000000e+00  1.0456231577955884e-06 -8.9491804027722597e-10 0.0000000000000000e+00  -8.2948719207895302e-06 1.2370623940077628e-09 0.0000000000000000e+00  -2.9436869541593203e-06 -2.8411121707075841e-10 0.0000000000000000e+00  -4.7725667783455279e-06 -1.1194781353432653e-09 0.0000000000000000e+00  -5.1814973074823208e-06 2.5816495009731469e-10 0.0000000000000000e+00  -5.9231495332997439e-06 5.6477864495566203e-10 0.0000000000000000e+00  -1.2402687781548728e-06 6.7364489421747799e-10 0.0000000000000000e+00  6.5624702213113928e-01 -1.1589984651800772e-10 0.0000000000000000e+00  6.5719675057802174e-01 -1.2315488328298424e-04 0.0000000000000000e+00  6.5844480014745210e-01 1.3675341567163517e-04 0.0000000000000000e+00  6.5826856182215676e-01 -2.2957789239716300e-05 0.0000000000000000e+00  6.5899670266080679e-01 -3.5769991508543349e-05 0.0000000000000000e+00  6.5871284493348525e-01 4.3570228117238096e-05 0.0000000000000000e+00  6.5852346854327171e-01 1.2548333101937954e-05 0.0000000000000000e+00  6.5740190922183384e-01 -1.5715266941275428e-05 0.0000000000000000e+00  6.5794163206386502e-01 -2.4879165863321806e-04 0.0000000000000000e+00  1.1249840990943349e+00 3.6236196867862329e-10 0.0000000000000000e+00  1.1256401700803140e+00 -6.1158185287764030e-04 0.0000000000000000e+00  1.1238736266866831e+00 -1.5637621544673495e-04 0.0000000000000000e+00  1.1266094273300038e+00 -1.6426705463060416e-04 0.0000000000000000e+00  1.1257265254035826e+00 6.9611995717911268e-06 0.0000000000000000e+00  1.1254218064865253e+00 2.2087437115696516e-04 0.0000000000000000e+00  1.1251057714416495e+00 1.8628693287450835e-04 0.0000000000000000e+00  1.1246325297672881e+00 1.1999417420344151e-04 0.0000000000000000e+00  1.1240730394235305e+00 3.8214034074702102e-05 0.0000000000000000e+00  1.4062394797282709e+00 -6.6239592302630100e-10 0.0000000000000000e+00  1.4055350695949425e+00 -1.4343121469494681e-04 0.0000000000000000e+00  1.4067745379520866e+00 -1.7339375671504895e-04 0.0000000000000000e+00  1.4048446439303583e+00 -2.1582316138262856e-04 0.0000000000000000e+00  1.4073704422971343e+00 -1.4911380802676497e-04 0.0000000000000000e+00  1.4058606209102145e+00 1.4306375859367680e-04 0.0000000000000000e+00  1.4056563259366210e+00 1.8984798589219084e-04 0.0000000000000000e+00  1.4057643239232027e+00 1.8819881524695918e-04 0.0000000000000000e+00  1.4053230851918663e+00 5.9852818309042925e-05 0.0000000000000000e+00  1.4999818394442757e+00 8.7573258435726668e-10 0.0000000000000000e+00  1.5000060301238196e+00 -1.5530449680715568e-04 0.0000000000000000e+00  1.4988107838737552e+00 -1.8164074180869826e-04 0.0000000000000000e+00  1.4998272780999939e+00 -1.2468672565358157e-04 0.0000000000000000e+00  1.4974102400592397e+00 -5.6491170087341460e-05 0.0000000000000000e+00  1.4988620027673538e+00 9.9986564850058628e-05 0.0000000000000000e+00  1.4984444626222884e+00 2.9995836315610986e-04 0.0000000000000000e+00  1.4984152428982620e+00 4.6966499059944672e-04 0.0000000000000000e+00  1.4978691794027923e+00 3.4754561599369902e-04 0.0000000000000000e+00  1.4062361148115337e+00 1.2208909683655022e-09 0.0000000000000000e+00  1.4054458730225798e+00 -7.3144410834607209e-05 0.0000000000000000e+00  1.4058734033028399e+00 -2.0883235327933978e-04 0.0000000000000000e+00  1.4050769626392303e+00 -5.2787513181986572e-05 0.0000000000000000e+00  1.4066517239271923e+00 4.6927631924004436e-05 0.0000000000000000e+00  1.4034823032357291e+00 3.8811697635031305e-05 0.0000000000000000e+00  1.4066254316749613e+00 2.1182590187611810e-04 0.0000000000000000e+00  1.4054095999472223e+00 3.9463583178825801e-04 0.0000000000000000e+00  1.4049560923714968e+00 4.2811695771037068e-04 0.0000000000000000e+00  1.1249860123875715e+00 5.8485769502218607e-10 0.0000000000000000e+00  1.1253698635447125e+00 1.8403503158761543e-04 0.0000000000000000e+00  1.1248896982212879e+00 -7.0227219462317518e-05 0.0000000000000000e+00  1.1246446784683919e+00 -3.7935185708442502e-05 0.0000000000000000e+00  1.1241922829087485e+00 -9.5940265885067716e-06 0.0000000000000000e+00  1.1250321092309419e+00 -3.1801542096368130e-05 0.0000000000000000e+00  1.1226428999312847e+00 1.9294678179605096e-04 0.0000000000000000e+00  1.1252555608604093e+00 5.3678755100912282e-04 0.0000000000000000e+00  1.1242255009736393e+00 6.2061659682684386e-04 0.0000000000000000e+00  6.5624143907075838e-01 -4.8488785181273354e-10 0.0000000000000000e+00  6.5595140426264376e-01 1.7779226160537852e-05 0.0000000000000000e+00  6.5661671713999070e-01 -2.0663161422646137e-04 0.0000000000000000e+00  6.5627390401482633e-01 -2.8229437476136741e-05 0.0000000000000000e+00  6.5691604811968218e-01 -7.6297266674336786e-07 0.0000000000000000e+00  6.5588827587375909e-01 3.6320295325334843e-05 0.0000000000000000e+00  6.5820495657181544e-01 2.1543729522203287e-04 0.0000000000000000e+00  6.5583850100915075e-01 2.1969546996482883e-04 0.0000000000000000e+00  6.6044783237059812e-01 7.6704065014112169e-04 0.0000000000000000e+00  -7.0295122233645877e-06 -1.1473743019139364e-09 0.0000000000000000e+00  -7.2258934203454547e-06 -4.3606861913779773e-10 0.0000000000000000e+00  -4.6008928913195423e-06 -3.6809512024098405e-10 0.0000000000000000e+00  -6.2763219605397578e-06 4.1828336950139341e-10 0.0000000000000000e+00  -2.2781245182514240e-06 1.3787028301537404e-09 0.0000000000000000e+00  -6.9277867318273524e-06 -1.2054266553594269e-09 0.0000000000000000e+00  -7.0837630627614342e-06 -9.2236638857403486e-10 0.0000000000000000e+00  4.7745455019807195e-07 -7.4236371237741582e-11 0.0000000000000000e+00  -1.0288880432463191e-05 -5.3790779578020012e-09 0.0000000000000000e+00  </DataArray> 
</PointData> 
</Piece>
</UnstructuredGrid>
</VTKFile>