<?xml version="1.0"?>
<VTKFile type="UnstructuredGrid"  version="0.1"  >
<UnstructuredGrid>
<Piece  NumberOfPoints="81" NumberOfCells="128">
<Points>
<DataArray  type="Float64"  NumberOfComponents="3"  format="ascii">0 0 0  0.275 0 0  0.55 0 0  0.8250000000000001 0 0  1.1 0 0  1.375 0 0  1.65 0 0  1.925 0 0  2.2 0 0  0 0.05125 0  0.275 0.05125 0  0.55 0.05125 0  0.8250000000000001 0.05125 0  1.1 0.05125 0  1.375 0.05125 0  1.65 0.05125 0  1.925 0.05125 0  2.2 0.05125 0  0 0.1025 0  0.275 0.1025 0  0.55 0.1025 0  0.8250000000000001 0.1025 0  1.1 0.1025 0  1.375 0.1025 0  1.65 0.1025 0  1.925 0.1025 0  2.2 0.1025 0  0 0.15375 0  0.275 0.15375 0  0.55 0.15375 0  0.8250000000000001 0.15375 0  1.1 0.15375 0  1.375 0.15375 0  1.65 0.15375 0  1.925 0.15375 0  2.2 0.15375 0  0 0.205 0  0.275 0.205 0  0.55 0.205 0  0.8250000000000001 0.205 0  1.1 0.205 0  1.375 0.205 0  1.65 0.205 0  1.925 0.205 0  2.2 0.205 0  0 0.25625 0  0.275 0.25625 0  0.55 0.25625 0  0.8250000000000001 0.25625 0  1.1 0.25625 0  1.375 0.25625 0  1.65 0.25625 0  1.925 0.25625 0  2.2 0.25625 0  0 0.3075 0  0.275 0.3075 0  0.55 0.3075 0  0.8250000000000001 0.3075 0  1.1 0.3075 0  1.375 0.3075 0  1.65 0.3075 0  1.925 0.3075 0  2.2 0.3075 0  0 0.35875 0  0.275 0.35875 0  0.55 0.35875 0  0.8250000000000001 0.35875 0  1.1 0.35875 0  1.375 0.35875 0  1.65 0.35875 0  1.925 0.35875 0  2.2 0.35875 0  0 0.41 0  0.275 0.41 0  0.55 0.41 0  0.8250000000000001 0.41 0  1.1 0.41 0  1.375 0.41 0  1.65 0.41 0  1.925 0.41 0  2.2 0.41 0  </DataArray>
</Points>
<Cells>
<DataArray  type="UInt32"  Name="connectivity"  format="ascii">0 1 9  1 9 10  1 2 11  1 10 11  2 3 11  3 11 12  3 4 13  3 12 13  4 5 13  5 13 14  5 6 15  5 14 15  6 7 15  7 15 16  7 8 17  7 16 17  9 10 19  9 18 19  10 11 19  11 19 20  11 12 21  11 20 21  12 13 21  13 21 22  13 14 23  13 22 23  14 15 23  15 23 24  15 16 25  15 24 25  16 17 25  17 25 26  18 19 27  19 27 28  19 20 29  19 28 29  20 21 29  21 29 30  21 22 31  21 30 31  22 23 31  23 31 32  23 24 33  23 32 33  24 25 33  25 33 34  25 26 35  25 34 35  27 28 37  27 36 37  28 29 37  29 37 38  29 30 39  29 38 39  30 31 39  31 39 40  31 32 41  31 40 41  32 33 41  33 41 42  33 34 43  33 42 43  34 35 43  35 43 44  36 37 45  37 45 46  37 38 47  37 46 47  38 39 47  39 47 48  39 40 49  39 48 49  40 41 49  41 49 50  41 42 51  41 50 51  42 43 51  43 51 52  43 44 53  43 52 53  45 46 55  45 54 55  46 47 55  47 55 56  47 48 57  47 56 57  48 49 57  49 57 58  49 50 59  49 58 59  50 51 59  51 59 60  51 52 61  51 60 61  52 53 61  53 61 62  54 55 63  55 63 64  55 56 65  55 64 65  56 57 65  57 65 66  57 58 67  57 66 67  58 59 67  59 67 68  59 60 69  59 68 69  60 61 69  61 69 70  61 62 71  61 70 71  63 64 73  63 72 73  64 65 73  65 73 74  65 66 75  65 74 75  66 67 75  67 75 76  67 68 77  67 76 77  68 69 77  69 77 78  69 70 79  69 78 79  70 71 79  71 79 80  </DataArray>
<DataArray  type="UInt32"  Name="offsets"  format="ascii">3 6 9 12 15 18 21 24 27 30 33 36 39 42 45 48 51 54 57 60 63 66 69 72 75 78 81 84 87 90 93 96 99 102 105 108 111 114 117 120 123 126 129 132 135 138 141 144 147 150 153 156 159 162 165 168 171 174 177 180 183 186 189 192 195 198 201 204 207 210 213 216 219 222 225 228 231 234 237 240 243 246 249 252 255 258 261 264 267 270 273 276 279 282 285 288 291 294 297 300 303 306 309 312 315 318 321 324 327 330 333 336 339 342 345 348 351 354 357 360 363 366 369 372 375 378 381 384 </DataArray>
<DataArray  type="UInt8"  Name="types"  format="ascii">5 5 5 5 5 5 5 5 5 5 5 5 5 5 5 5 5 5 5 5 5 5 5 5 5 5 5 5 5 5 5 5 5 5 5 5 5 5 5 5 5 5 5 5 5 5 5 5 5 5 5 5 5 5 5 5 5 5 5 5 5 5 5 5 5 5 5 5 5 5 5 5 5 5 5 5 5 5 5 5 5 5 5 5 5 5 5 5 5 5 5 5 5 5 5 5 5 5 5 5 5 5 5 5 5 5 5 5 5 5 5 5 5 5 5 5 5 5 5 5 5 5 5 5 5 5 5 5 </DataArray>
</Cells>
<PointData  Vectors="f_16"> 
<DataArray  type="Float64"  Name="f_16"  NumberOfComponents="3" format="ascii">2.0489824633171237e-05 -4.4236414190359218e-09 0.0000000000000000e+00  -1.2013181998003776e-06 -1.6697938985230681e-11 0.0000000000000000e+00  1.0436380891809530e-06 -9.7773761312729370e-10 0.0000000000000000e+00  -8.2926892446980955e-06 9.7070481597306737e-10 0.0000000000000000e+00  -2.9403484756772569e-06 8.8252931310472715e-12 0.0000000000000000e+00  -4.7736573777452166e-06 -8.0552116961411235e-10 0.0000000000000000e+00  -5.1847979810227472e-06 -4.1161320575167117e-10 0.0000000000000000e+00  -5.9222948454073050e-06 -4.8515992892469251e-10 0.0000000000000000e+00  -1.2393013556723693e-06 1.8525781760742143e-10 0.0000000000000000e+00  6.5624702212457153e-01 -2.9190010540161557e-10 0.0000000000000000e+00  6.5712391051960328e-01 -1.2751204648964913e-04 0.0000000000000000e+00  6.5837140846791964e-01 1.3392999623712266e-04 0.0000000000000000e+00  6.5820384107027219e-01 -3.2438409302456569e-05 0.0000000000000000e+00  6.5877257393772226e-01 -2.0050184909799931e-05 0.0000000000000000e+00  6.5863194850973528e-01 3.7388560292526969e-05 0.0000000000000000e+00  6.5835945144923169e-01 1.1898391662413654e-06 0.0000000000000000e+00  6.5750559548913978e-01 2.7507691694131750e-05 0.0000000000000000e+00  6.5751123850932325e-01 -4.3005484708193591e-05 0.0000000000000000e+00  1.1249841011239534e+00 9.9333491156680444e-10 0.0000000000000000e+00  1.1255465681232886e+00 -6.1946734444688677e-04 0.0000000000000000e+00  1.1238782942156564e+00 -1.5453323555110037e-04 0.0000000000000000e+00  1.1264601101416936e+00 -1.3214433794772224e-04 0.0000000000000000e+00  1.1256144299276254e+00 9.9925240722405316e-06 0.0000000000000000e+00  1.1252563437541769e+00 1.8259898741475488e-04 0.0000000000000000e+00  1.1252000378110121e+00 1.5006551287723694e-04 0.0000000000000000e+00  1.1246455873627184e+00 2.1142905999081173e-04 0.0000000000000000e+00  1.1241656142495797e+00 1.4359979032457104e-04 0.0000000000000000e+00  1.4062394803784790e+00 -9.2403084502729637e-11 0.0000000000000000e+00  1.4055812966572310e+00 -1.6314715217739451e-04 0.0000000000000000e+00  1.4068413729726461e+00 -1.4408471401252602e-04 0.0000000000000000e+00  1.4047277430435254e+00 -1.8451539193975133e-04 0.0000000000000000e+00  1.4072092151283593e+00 -1.7999606154397633e-04 0.0000000000000000e+00  1.4061134216376150e+00 9.9361124233938959e-05 0.0000000000000000e+00  1.4057879206938870e+00 1.5935041939816084e-04 0.0000000000000000e+00  1.4056740770119847e+00 2.1064959465065728e-04 0.0000000000000000e+00  1.4055833789925121e+00 1.3031834660281858e-04 0.0000000000000000e+00  1.4999818422795339e+00 8.8481367909621804e-10 0.0000000000000000e+00  1.5000651970901260e+00 -1.5749892182720496e-04 0.0000000000000000e+00  1.4988917572167477e+00 -1.8412160742101302e-04 0.0000000000000000e+00  1.4995826573790774e+00 -1.2691321378510120e-04 0.0000000000000000e+00  1.4973481556594950e+00 -6.5697460667982010e-05 0.0000000000000000e+00  1.4993224168109553e+00 8.2839570660792652e-05 0.0000000000000000e+00  1.4985456643777917e+00 2.8127943959590129e-04 0.0000000000000000e+00  1.4981433800525539e+00 4.5787843222175372e-04 0.0000000000000000e+00  1.4981986414068345e+00 3.4156633093091257e-04 0.0000000000000000e+00  1.4062361156404564e+00 6.4884786589432513e-10 0.0000000000000000e+00  1.4054888642455421e+00 -5.5801476480167120e-05 0.0000000000000000e+00  1.4059373175010634e+00 -2.4007445494740031e-04 0.0000000000000000e+00  1.4049548543753840e+00 -9.1066503102229905e-05 0.0000000000000000e+00  1.4064725127069446e+00 6.1513994976148312e-05 0.0000000000000000e+00  1.4036773220689533e+00 5.3221960903369038e-05 0.0000000000000000e+00  1.4066639396382288e+00 2.0382914960386217e-04 0.0000000000000000e+00  1.4051916072248170e+00 3.5152250970019655e-04 0.0000000000000000e+00  1.4050576037602562e+00 3.5542024094157464e-04 0.0000000000000000e+00  1.1249860145169635e+00 -6.1364151038636437e-11 0.0000000000000000e+00  1.1252779774742245e+00 1.8991007299913230e-04 0.0000000000000000e+00  1.1248846783341306e+00 -7.5720248766865777e-05 0.0000000000000000e+00  1.1244814338900042e+00 -7.4328297768263887e-05 0.0000000000000000e+00  1.1240358130450554e+00 -2.4373898585820741e-05 0.0000000000000000e+00  1.1247753495501387e+00 -1.3134136265757065e-05 0.0000000000000000e+00  1.1225633170581983e+00 2.0837903926561468e-04 0.0000000000000000e+00  1.1250322471077796e+00 4.3357486990438116e-04 0.0000000000000000e+00  1.1240285695706862e+00 5.1664446081175781e-04 0.0000000000000000e+00  6.5624143952376746e-01 -3.2011703734477482e-10 0.0000000000000000e+00  6.5587884744036518e-01 2.1719503374877734e-05 0.0000000000000000e+00  6.5653691347750776e-01 -2.0505115224519265e-04 0.0000000000000000e+00  6.5618702343707935e-01 -2.1158337347248561e-05 0.0000000000000000e+00  6.5664223478635875e-01 -2.0745693341450319e-05 0.0000000000000000e+00  6.5570054150199830e-01 3.6495010681111061e-05 0.0000000000000000e+00  6.5786961944364952e-01 2.1987641561370540e-04 0.0000000000000000e+00  6.5571404545996648e-01 1.7417707010301847e-04 0.0000000000000000e+00  6.5979631374580983e-01 5.7144481301366133e-04 0.0000000000000000e+00  -7.0283145764684664e-06 -8.2235747883076706e-10 0.0000000000000000e+00  -7.2265807122943117e-06 -4.9674591738845555e-10 0.0000000000000000e+00  -4.6030199726258123e-06 -2.0911745616881901e-10 0.0000000000000000e+00  -6.2741264350027953e-06 8.2525782150073146e-10 0.0000000000000000e+00  -2.2754012467533032e-06 1.0915817341107575e-09 0.0000000000000000e+00  -6.9280973412934310e-06 -1.3620285515363846e-09 0.0000000000000000e+00  -7.0866483311179503e-06 -4.0232032654823619e-10 0.0000000000000000e+00  4.7831897007999615e-07 3.5734657470484899e-10 0.0000000000000000e+00  -1.0283545208413762e-05 -4.4977308488070817e-09 0.0000000000000000e+00  </DataArray> 
</PointData> 
</Piece>
</UnstructuredGrid>
</VTKFile>