<?xml version="1.0"?>
<VTKFile type="UnstructuredGrid"  version="0.1"  >
<UnstructuredGrid>
<Piece  NumberOfPoints="81" NumberOfCells="128">
<Points>
<DataArray  type="Float64"  NumberOfComponents="3"  format="ascii">0 0 0  0.275 0 0  0.55 0 0  0.8250000000000001 0 0  1.1 0 0  1.375 0 0  1.65 0 0  1.925 0 0  2.2 0 0  0 0.05125 0  0.275 0.05125 0  0.55 0.05125 0  0.8250000000000001 0.05125 0  1.1 0.05125 0  1.375 0.05125 0  1.65 0.05125 0  1.925 0.05125 0  2.2 0.05125 0  0 0.1025 0  0.275 0.1025 0  0.55 0.1025 0  0.8250000000000001 0.1025 0  1.1 0.1025 0  1.375 0.1025 0  1.65 0.1025 0  1.925 0.1025 0  2.2 0.1025 0  0 0.15375 0  0.275 0.15375 0  0.55 0.15375 0  0.8250000000000001 0.15375 0  1.1 0.15375 0  1.375 0.15375 0  1.65 0.15375 0  1.925 0.15375 0  2.2 0.15375 0  0 0.205 0  0.275 0.205 0  0.55 0.205 0  0.8250000000000001 0.205 0  1.1 0.205 0  1.375 0.205 0  1.65 0.205 0  1.925 0.205 0  2.2 0.205 0  0 0.25625 0  0.275 0.25625 0  0.55 0.25625 0  0.8250000000000001 0.25625 0  1.1 0.25625 0  1.375 0.25625 0  1.65 0.25625 0  1.925 0.25625 0  2.2 0.25625 0  0 0.3075 0  0.275 0.3075 0  0.55 0.3075 0  0.8250000000000001 0.3075 0  1.1 0.3075 0  1.375 0.3075 0  1.65 0.3075 0  1.925 0.3075 0  2.2 0.3075 0  0 0.35875 0  0.275 0.35875 0  0.55 0.35875 0  0.8250000000000001 0.35875 0  1.1 0.35875 0  1.375 0.35875 0  1.65 0.35875 0  1.925 0.35875 0  2.2 0.35875 0  0 0.41 0  0.275 0.41 0  0.55 0.41 0  0.8250000000000001 0.41 0  1.1 0.41 0  1.375 0.41 0  1.65 0.41 0  1.925 0.41 0  2.2 0.41 0  </DataArray>
</Points>
<Cells>
<DataArray  type="UInt32"  Name="connectivity"  format="ascii">0 1 9  1 9 10  1 2 11  1 10 11  2 3 11  3 11 12  3 4 13  3 12 13  4 5 13  5 13 14  5 6 15  5 14 15  6 7 15  7 15 16  7 8 17  7 16 17  9 10 19  9 18 19  10 11 19  11 19 20  11 12 21  11 20 21  12 13 21  13 21 22  13 14 23  13 22 23  14 15 23  15 23 24  15 16 25  15 24 25  16 17 25  17 25 26  18 19 27  19 27 28  19 20 29  19 28 29  20 21 29  21 29 30  21 22 31  21 30 31  22 23 31  23 31 32  23 24 33  23 32 33  24 25 33  25 33 34  25 26 35  25 34 35  27 28 37  27 36 37  28 29 37  29 37 38  29 30 39  29 38 39  30 31 39  31 39 40  31 32 41  31 40 41  32 33 41  33 41 42  33 34 43  33 42 43  34 35 43  35 43 44  36 37 45  37 45 46  37 38 47  37 46 47  38 39 47  39 47 48  39 40 49  39 48 49  40 41 49  41 49 50  41 42 51  41 50 51  42 43 51  43 51 52  43 44 53  43 52 53  45 46 55  45 54 55  46 47 55  47 55 56  47 48 57  47 56 57  48 49 57  49 57 58  49 50 59  49 58 59  50 51 59  51 59 60  51 52 61  51 60 61  52 53 61  53 61 62  54 55 63  55 63 64  55 56 65  55 64 65  56 57 65  57 65 66  57 58 67  57 66 67  58 59 67  59 67 68  59 60 69  59 68 69  60 61 69  61 69 70  61 62 71  61 70 71  63 64 73  63 72 73  64 65 73  65 73 74  65 66 75  65 74 75  66 67 75  67 75 76  67 68 77  67 76 77  68 69 77  69 77 78  69 70 79  69 78 79  70 71 79  71 79 80  </DataArray>
<DataArray  type="UInt32"  Name="offsets"  format="ascii">3 6 9 12 15 18 21 24 27 30 33 36 39 42 45 48 51 54 57 60 63 66 69 72 75 78 81 84 87 90 93 96 99 102 105 108 111 114 117 120 123 126 129 132 135 138 141 144 147 150 153 156 159 162 165 168 171 174 177 180 183 186 189 192 195 198 201 204 207 210 213 216 219 222 225 228 231 234 237 240 243 246 249 252 255 258 261 264 267 270 273 276 279 282 285 288 291 294 297 300 303 306 309 312 315 318 321 324 327 330 333 336 339 342 345 348 351 354 357 360 363 366 369 372 375 378 381 384 </DataArray>
<DataArray  type="UInt8"  Name="types"  format="ascii">5 5 5 5 5 5 5 5 5 5 5 5 5 5 5 5 5 5 5 5 5 5 5 5 5 5 5 5 5 5 5 5 5 5 5 5 5 5 5 5 5 5 5 5 5 5 5 5 5 5 5 5 5 5 5 5 5 5 5 5 5 5 5 5 5 5 5 5 5 5 5 5 5 5 5 5 5 5 5 5 5 5 5 5 5 5 5 5 5 5 5 5 5 5 5 5 5 5 5 5 5 5 5 5 5 5 5 5 5 5 5 5 5 5 5 5 5 5 5 5 5 5 5 5 5 5 5 5 </DataArray>
</Cells>
<PointData  Vectors="f_16"> 
<DataArray  type="Float64"  Name="f_16"  NumberOfComponents="3" format="ascii">2.1215921906824724e-05 -7.9548243701182331e-08 0.0000000000000000e+00  -1.0278957280586711e-06 -4.0620982835051558e-08 0.0000000000000000e+00  1.7043996194992517e-06 -1.0207016756396691e-07 0.0000000000000000e+00  -8.5515678905298214e-06 1.0963167862025881e-07 0.0000000000000000e+00  -4.0174351931098711e-06 6.3364932482181463e-08 0.0000000000000000e+00  -5.6872379953734469e-06 1.0153795027726104e-07 0.0000000000000000e+00  -7.5155447039325523e-06 4.8045783647112372e-08 0.0000000000000000e+00  -6.7394742671472249e-06 -1.3288013224250727e-07 0.0000000000000000e+00  -3.6554905826636223e-06 2.4892113166911040e-08 0.0000000000000000e+00  6.5624712090653559e-01 2.5064284323207712e-08 0.0000000000000000e+00  6.6270063351194086e-01 -1.6361907923233643e-03 0.0000000000000000e+00  6.7253839966371187e-01 -3.2377863953230346e-03 0.0000000000000000e+00  7.2033798845541486e-01 -1.0335263010583660e-02 0.0000000000000000e+00  8.3909721990175146e-01 -1.6566325762138297e-02 0.0000000000000000e+00  9.2654626937193774e-01 -3.9088714607105907e-03 0.0000000000000000e+00  9.0847813954175582e-01 5.4795924373145224e-03 0.0000000000000000e+00  9.2243819863415388e-01 -4.5887455418176498e-03 0.0000000000000000e+00  8.9782442717931987e-01 8.4726013694611489e-03 0.0000000000000000e+00  1.1249842760349780e+00 3.1778720307855593e-08 0.0000000000000000e+00  1.1279681415930096e+00 -1.4119732010375767e-03 0.0000000000000000e+00  1.1234576571493455e+00 -1.2555985447591127e-03 0.0000000000000000e+00  1.1084311189852443e+00 -2.0356899999195297e-02 0.0000000000000000e+00  1.1050031030486560e+00 -3.7108394665925255e-02 0.0000000000000000e+00  1.1725477674534506e+00 -5.1213486924865086e-03 0.0000000000000000e+00  1.1872897585047886e+00 7.0166259400047453e-03 0.0000000000000000e+00  1.1713848097027242e+00 -1.3259420147149316e-02 0.0000000000000000e+00  1.1805169653321372e+00 1.0208129591337024e-02 0.0000000000000000e+00  1.4062397326722342e+00 -7.0620219674807750e-09 0.0000000000000000e+00  1.4080071246265269e+00 7.0259392165426566e-04 0.0000000000000000e+00  1.4000533061518534e+00 1.4148786154380851e-03 0.0000000000000000e+00  1.3589448143560630e+00 -1.5348326259334532e-02 0.0000000000000000e+00  1.2934188946337235e+00 -2.6975554652855650e-02 0.0000000000000000e+00  1.2056969683586265e+00 -9.8220298010229159e-03 0.0000000000000000e+00  1.2144259012928260e+00 4.6498737813402500e-03 0.0000000000000000e+00  1.1948790600760264e+00 -4.1569026777966006e-03 0.0000000000000000e+00  1.2125107461893825e+00 9.3371615586914994e-03 0.0000000000000000e+00  1.4999818853932469e+00 -3.8598395540557285e-08 0.0000000000000000e+00  1.5087959540900255e+00 -1.5951474761348290e-04 0.0000000000000000e+00  1.4875235514134180e+00 -6.5617988422254586e-05 0.0000000000000000e+00  1.4474470154117007e+00 4.8154894662590799e-06 0.0000000000000000e+00  1.3610694979691504e+00 -6.0594427228775153e-05 0.0000000000000000e+00  1.2145860252598422e+00 7.6903222128624040e-05 0.0000000000000000e+00  1.2149484697116677e+00 1.1456831485743223e-04 0.0000000000000000e+00  1.1932121737769685e+00 2.4763101400486915e-04 0.0000000000000000e+00  1.2132325002076176e+00 3.3078741855011067e-05 0.0000000000000000e+00  1.4062365538286630e+00 -3.6552538203488722e-08 0.0000000000000000e+00  1.4079598673261369e+00 -8.6138808477650129e-04 0.0000000000000000e+00  1.3994219530424030e+00 -1.5493428583662878e-03 0.0000000000000000e+00  1.3594505417292948e+00 1.5273576873852756e-02 0.0000000000000000e+00  1.2928595422513647e+00 2.6919526677937310e-02 0.0000000000000000e+00  1.2034024476509109e+00 9.8691362568460207e-03 0.0000000000000000e+00  1.2158261083684925e+00 -4.5602963952467851e-03 0.0000000000000000e+00  1.1943583492627308e+00 4.4081862659673945e-03 0.0000000000000000e+00  1.2118222362280942e+00 -9.5324922302432637e-03 0.0000000000000000e+00  1.1249860000703622e+00 -5.5018106863778310e-08 0.0000000000000000e+00  1.1276589572656484e+00 9.7040020320176537e-04 0.0000000000000000e+00  1.1247660605555752e+00 1.1805731013451847e-03 0.0000000000000000e+00  1.1072262344757240e+00 2.0317079199367278e-02 0.0000000000000000e+00  1.1044987886066733e+00 3.7167552026030955e-02 0.0000000000000000e+00  1.1728822135726169e+00 5.1464169568211770e-03 0.0000000000000000e+00  1.1853257926929235e+00 -6.9089934981673481e-03 0.0000000000000000e+00  1.1719140164764419e+00 1.3615958239602394e-02 0.0000000000000000e+00  1.1798828027750847e+00 -1.0036498813810800e-02 0.0000000000000000e+00  6.5624173487704041e-01 -3.4604062260372478e-08 0.0000000000000000e+00  6.6134509923399454e-01 1.5083476698918145e-03 0.0000000000000000e+00  6.7104351067236878e-01 3.2581423814079429e-03 0.0000000000000000e+00  7.1922260264174653e-01 1.0328400451739489e-02 0.0000000000000000e+00  8.3830442078778089e-01 1.6507502071516317e-02 0.0000000000000000e+00  9.2498498068110024e-01 3.9214028894360552e-03 0.0000000000000000e+00  9.0845582175555495e-01 -5.3631402230575470e-03 0.0000000000000000e+00  9.2029719048471448e-01 4.6480692634138206e-03 0.0000000000000000e+00  8.9880853946880568e-01 -8.2371863460010859e-03 0.0000000000000000e+00  -6.7380358838590239e-06 3.0076710478593896e-08 0.0000000000000000e+00  -7.0702192861711493e-06 2.4240800076667372e-08 0.0000000000000000e+00  -4.1308667813446910e-06 1.0680479430642211e-07 0.0000000000000000e+00  -5.7512566292192371e-06 -4.3468799486693798e-08 0.0000000000000000e+00  -3.0081838700893366e-06 -1.4036835935723576e-07 0.0000000000000000e+00  -7.6272757951051009e-06 -1.9524305101060694e-07 0.0000000000000000e+00  -8.5089796007572965e-06 -1.8101489894964308e-07 0.0000000000000000e+00  1.5460922098616497e-06 1.1605559401106909e-07 0.0000000000000000e+00  -1.1060560273953216e-05 7.0076651842537706e-09 0.0000000000000000e+00  </DataArray> 
</PointData> 
</Piece>
</UnstructuredGrid>
</VTKFile>