<?xml version="1.0"?>
<VTKFile type="UnstructuredGrid"  version="0.1"  >
<UnstructuredGrid>
<Piece  NumberOfPoints="81" NumberOfCells="128">
<Points>
<DataArray  type="Float64"  NumberOfComponents="3"  format="ascii">0 0 0  0.275 0 0  0.55 0 0  0.8250000000000001 0 0  1.1 0 0  1.375 0 0  1.65 0 0  1.925 0 0  2.2 0 0  0 0.05125 0  0.275 0.05125 0  0.55 0.05125 0  0.8250000000000001 0.05125 0  1.1 0.05125 0  1.375 0.05125 0  1.65 0.05125 0  1.925 0.05125 0  2.2 0.05125 0  0 0.1025 0  0.275 0.1025 0  0.55 0.1025 0  0.8250000000000001 0.1025 0  1.1 0.1025 0  1.375 0.1025 0  1.65 0.1025 0  1.925 0.1025 0  2.2 0.1025 0  0 0.15375 0  0.275 0.15375 0  0.55 0.15375 0  0.8250000000000001 0.15375 0  1.1 0.15375 0  1.375 0.15375 0  1.65 0.15375 0  1.925 0.15375 0  2.2 0.15375 0  0 0.205 0  0.275 0.205 0  0.55 0.205 0  0.8250000000000001 0.205 0  1.1 0.205 0  1.375 0.205 0  1.65 0.205 0  1.925 0.205 0  2.2 0.205 0  0 0.25625 0  0.275 0.25625 0  0.55 0.25625 0  0.8250000000000001 0.25625 0  1.1 0.25625 0  1.375 0.25625 0  1.65 0.25625 0  1.925 0.25625 0  2.2 0.25625 0  0 0.3075 0  0.275 0.3075 0  0.55 0.3075 0  0.8250000000000001 0.3075 0  1.1 0.3075 0  1.375 0.3075 0  1.65 0.3075 0  1.925 0.3075 0  2.2 0.3075 0  0 0.35875 0  0.275 0.35875 0  0.55 0.35875 0  0.8250000000000001 0.35875 0  1.1 0.35875 0  1.375 0.35875 0  1.65 0.35875 0  1.925 0.35875 0  2.2 0.35875 0  0 0.41 0  0.275 0.41 0  0.55 0.41 0  0.8250000000000001 0.41 0  1.1 0.41 0  1.375 0.41 0  1.65 0.41 0  1.925 0.41 0  2.2 0.41 0  </DataArray>
</Points>
<Cells>
<DataArray  type="UInt32"  Name="connectivity"  format="ascii">0 1 9  1 9 10  1 2 11  1 10 11  2 3 11  3 11 12  3 4 13  3 12 13  4 5 13  5 13 14  5 6 15  5 14 15  6 7 15  7 15 16  7 8 17  7 16 17  9 10 19  9 18 19  10 11 19  11 19 20  11 12 21  11 20 21  12 13 21  13 21 22  13 14 23  13 22 23  14 15 23  15 23 24  15 16 25  15 24 25  16 17 25  17 25 26  18 19 27  19 27 28  19 20 29  19 28 29  20 21 29  21 29 30  21 22 31  21 30 31  22 23 31  23 31 32  23 24 33  23 32 33  24 25 33  25 33 34  25 26 35  25 34 35  27 28 37  27 36 37  28 29 37  29 37 38  29 30 39  29 38 39  30 31 39  31 39 40  31 32 41  31 40 41  32 33 41  33 41 42  33 34 43  33 42 43  34 35 43  35 43 44  36 37 45  37 45 46  37 38 47  37 46 47  38 39 47  39 47 48  39 40 49  39 48 49  40 41 49  41 49 50  41 42 51  41 50 51  42 43 51  43 51 52  43 44 53  43 52 53  45 46 55  45 54 55  46 47 55  47 55 56  47 48 57  47 56 57  48 49 57  49 57 58  49 50 59  49 58 59  50 51 59  51 59 60  51 52 61  51 60 61  52 53 61  53 61 62  54 55 63  55 63 64  55 56 65  55 64 65  56 57 65  57 65 66  57 58 67  57 66 67  58 59 67  59 67 68  59 60 69  59 68 69  60 61 69  61 69 70  61 62 71  61 70 71  63 64 73  63 72 73  64 65 73  65 73 74  65 66 75  65 74 75  66 67 75  67 75 76  67 68 77  67 76 77  68 69 77  69 77 78  69 70 79  69 78 79  70 71 79  71 79 80  </DataArray>
<DataArray  type="UInt32"  Name="offsets"  format="ascii">3 6 9 12 15 18 21 24 27 30 33 36 39 42 45 48 51 54 57 60 63 66 69 72 75 78 81 84 87 90 93 96 99 102 105 108 111 114 117 120 123 126 129 132 135 138 141 144 147 150 153 156 159 162 165 168 171 174 177 180 183 186 189 192 195 198 201 204 207 210 213 216 219 222 225 228 231 234 237 240 243 246 249 252 255 258 261 264 267 270 273 276 279 282 285 288 291 294 297 300 303 306 309 312 315 318 321 324 327 330 333 336 339 342 345 348 351 354 357 360 363 366 369 372 375 378 381 384 </DataArray>
<DataArray  type="UInt8"  Name="types"  format="ascii">5 5 5 5 5 5 5 5 5 5 5 5 5 5 5 5 5 5 5 5 5 5 5 5 5 5 5 5 5 5 5 5 5 5 5 5 5 5 5 5 5 5 5 5 5 5 5 5 5 5 5 5 5 5 5 5 5 5 5 5 5 5 5 5 5 5 5 5 5 5 5 5 5 5 5 5 5 5 5 5 5 5 5 5 5 5 5 5 5 5 5 5 5 5 5 5 5 5 5 5 5 5 5 5 5 5 5 5 5 5 5 5 5 5 5 5 5 5 5 5 5 5 5 5 5 5 5 5 </DataArray>
</Cells>
<PointData  Vectors="f_16"> 
<DataArray  type="Float64"  Name="f_16"  NumberOfComponents="3" format="ascii">2.1094121543658799e-05 -5.2118358060339119e-08 0.0000000000000000e+00  -1.0220346346899881e-06 -4.5134932487678371e-08 0.0000000000000000e+00  1.8103639313916576e-06 -7.9883961958473532e-08 0.0000000000000000e+00  -8.5530485012462043e-06 1.0057912753117911e-07 0.0000000000000000e+00  -4.0559275039350091e-06 1.2725994742609139e-09 0.0000000000000000e+00  -5.6280331955443808e-06 1.0786917535890163e-07 0.0000000000000000e+00  -7.3628614950106964e-06 3.0532610561820319e-08 0.0000000000000000e+00  -6.8181327604762293e-06 -9.9154413074648873e-08 0.0000000000000000e+00  -3.8350988960839742e-06 3.6822853216104688e-08 0.0000000000000000e+00  6.5624708865742620e-01 3.2330310756358909e-08 0.0000000000000000e+00  6.6316933649290832e-01 -1.6235046591619865e-03 0.0000000000000000e+00  6.6858204092380391e-01 -1.4438623852661640e-03 0.0000000000000000e+00  7.0799958895530879e-01 -8.6829263241828096e-03 0.0000000000000000e+00  8.2063672689678036e-01 -1.7492344823057122e-02 0.0000000000000000e+00  9.1281830817009879e-01 -4.4037542341386115e-03 0.0000000000000000e+00  9.0414544032895594e-01 4.2036808342017715e-03 0.0000000000000000e+00  9.1372188676603550e-01 -5.7464156350732869e-03 0.0000000000000000e+00  8.9233550412696705e-01 9.1392271578273569e-03 0.0000000000000000e+00  1.1249841688534650e+00 2.9780606224589290e-09 0.0000000000000000e+00  1.1274723890253757e+00 -8.3782352647554504e-04 0.0000000000000000e+00  1.1198381562245496e+00 -3.9254870554469585e-04 0.0000000000000000e+00  1.1143575016693961e+00 -1.9874902667566887e-02 0.0000000000000000e+00  1.1093013962913119e+00 -3.1393051290166896e-02 0.0000000000000000e+00  1.1634206544170977e+00 -1.1059975300679982e-02 0.0000000000000000e+00  1.1863410558401313e+00 4.7506698629261211e-03 0.0000000000000000e+00  1.1718939683052234e+00 -1.1731848907627572e-02 0.0000000000000000e+00  1.1835451505912031e+00 9.2416288767636929e-03 0.0000000000000000e+00  1.4062396819908081e+00 -2.5277828664198481e-08 0.0000000000000000e+00  1.4048440425691890e+00 1.5003824112715821e-03 0.0000000000000000e+00  1.3967370141194360e+00 -1.6258251937651010e-04 0.0000000000000000e+00  1.3735092839979097e+00 -1.4638570990878376e-02 0.0000000000000000e+00  1.3152133098256737e+00 -2.0483196139903379e-02 0.0000000000000000e+00  1.2144058362200822e+00 -1.5522222947338554e-02 0.0000000000000000e+00  1.2101336814645720e+00 3.0796506496882435e-03 0.0000000000000000e+00  1.2014250135226978e+00 -3.3491560469293721e-03 0.0000000000000000e+00  1.2173336789040965e+00 6.9109737567252588e-03 0.0000000000000000e+00  1.4999817328198006e+00 -3.4761790859463258e-08 0.0000000000000000e+00  1.5029565439267998e+00 -1.4918095178593168e-04 0.0000000000000000e+00  1.4859086992274146e+00 -7.6954349693366747e-05 0.0000000000000000e+00  1.4648732972391396e+00 1.4094414842058816e-05 0.0000000000000000e+00  1.3844261489463183e+00 -5.0740061925729598e-05 0.0000000000000000e+00  1.2317440327476599e+00 4.9611861750100081e-05 0.0000000000000000e+00  1.2104843953950453e+00 1.3053233238586345e-04 0.0000000000000000e+00  1.2006885285866664e+00 2.4746806250379899e-04 0.0000000000000000e+00  1.2181053037727652e+00 4.1746430382126052e-05 0.0000000000000000e+00  1.4062364768555495e+00 -1.3333160415813257e-08 0.0000000000000000e+00  1.4048126648853723e+00 -1.6586796624761015e-03 0.0000000000000000e+00  1.3960129830703898e+00 -1.6630756715113983e-05 0.0000000000000000e+00  1.3740124274515431e+00 1.4564532092301605e-02 0.0000000000000000e+00  1.3147472714313206e+00 2.0450721103400529e-02 0.0000000000000000e+00  1.2120724681541040e+00 1.5539235133025912e-02 0.0000000000000000e+00  1.2115305425837000e+00 -2.9908365361858507e-03 0.0000000000000000e+00  1.2008517648335417e+00 3.5952710457735002e-03 0.0000000000000000e+00  1.2166103388296821e+00 -7.1003852692557877e-03 0.0000000000000000e+00  1.1249858903521481e+00 -1.9170883212369281e-08 0.0000000000000000e+00  1.1271926547342142e+00 4.0569146888340705e-04 0.0000000000000000e+00  1.1211085228325506e+00 2.9744408554886639e-04 0.0000000000000000e+00  1.1130722916142601e+00 1.9838643191455101e-02 0.0000000000000000e+00  1.1088205842033960e+00 3.1466081139114359e-02 0.0000000000000000e+00  1.1637570709560583e+00 1.1066684504332699e-02 0.0000000000000000e+00  1.1843660821531021e+00 -4.6588586206612655e-03 0.0000000000000000e+00  1.1723160976401068e+00 1.2119592929855533e-02 0.0000000000000000e+00  1.1829003154629329e+00 -9.0619388100973662e-03 0.0000000000000000e+00  6.5624169212668781e-01 -4.0671531193678631e-08 0.0000000000000000e+00  6.6182835861239475e-01 1.5037842573381607e-03 0.0000000000000000e+00  6.6706160682166604e-01 1.4511176603720088e-03 0.0000000000000000e+00  7.0682554041089185e-01 8.6683743995294698e-03 0.0000000000000000e+00  8.1978830091730415e-01 1.7447637750486820e-02 0.0000000000000000e+00  9.1131035316007336e-01 4.4173193130678254e-03 0.0000000000000000e+00  9.0405693980707902e-01 -4.1010566537541702e-03 0.0000000000000000e+00  9.1157607599357238e-01 5.8207471423146785e-03 0.0000000000000000e+00  8.9336014238590644e-01 -8.9086266429656870e-03 0.0000000000000000e+00  -6.8341240036078320e-06 3.7709693757893223e-09 0.0000000000000000e+00  -7.0640323435939519e-06 2.7565352832560197e-08 0.0000000000000000e+00  -4.0304310050616124e-06 7.8236648943579107e-08 0.0000000000000000e+00  -5.8072687247265568e-06 -4.0050861892978818e-08 0.0000000000000000e+00  -3.0366640816572913e-06 -7.1432114206121845e-08 0.0000000000000000e+00  -7.5113353138475895e-06 -1.8315135146696815e-07 0.0000000000000000e+00  -8.3833977111850597e-06 -1.4431041103197386e-07 0.0000000000000000e+00  1.4437887870717345e-06 9.1125760626174580e-08 0.0000000000000000e+00  -1.1294864394234532e-05 -1.0346453215765048e-08 0.0000000000000000e+00  </DataArray> 
</PointData> 
</Piece>
</UnstructuredGrid>
</VTKFile>