<?xml version="1.0"?>
<VTKFile type="UnstructuredGrid"  version="0.1"  >
<UnstructuredGrid>
<Piece  NumberOfPoints="81" NumberOfCells="128">
<Points>
<DataArray  type="Float64"  NumberOfComponents="3"  format="ascii">0 0 0  0.275 0 0  0.55 0 0  0.8250000000000001 0 0  1.1 0 0  1.375 0 0  1.65 0 0  1.925 0 0  2.2 0 0  0 0.05125 0  0.275 0.05125 0  0.55 0.05125 0  0.8250000000000001 0.05125 0  1.1 0.05125 0  1.375 0.05125 0  1.65 0.05125 0  1.925 0.05125 0  2.2 0.05125 0  0 0.1025 0  0.275 0.1025 0  0.55 0.1025 0  0.8250000000000001 0.1025 0  1.1 0.1025 0  1.375 0.1025 0  1.65 0.1025 0  1.925 0.1025 0  2.2 0.1025 0  0 0.15375 0  0.275 0.15375 0  0.55 0.15375 0  0.8250000000000001 0.15375 0  1.1 0.15375 0  1.375 0.15375 0  1.65 0.15375 0  1.925 0.15375 0  2.2 0.15375 0  0 0.205 0  0.275 0.205 0  0.55 0.205 0  0.8250000000000001 0.205 0  1.1 0.205 0  1.375 0.205 0  1.65 0.205 0  1.925 0.205 0  2.2 0.205 0  0 0.25625 0  0.275 0.25625 0  0.55 0.25625 0  0.8250000000000001 0.25625 0  1.1 0.25625 0  1.375 0.25625 0  1.65 0.25625 0  1.925 0.25625 0  2.2 0.25625 0  0 0.3075 0  0.275 0.3075 0  0.55 0.3075 0  0.8250000000000001 0.3075 0  1.1 0.3075 0  1.375 0.3075 0  1.65 0.3075 0  1.925 0.3075 0  2.2 0.3075 0  0 0.35875 0  0.275 0.35875 0  0.55 0.35875 0  0.8250000000000001 0.35875 0  1.1 0.35875 0  1.375 0.35875 0  1.65 0.35875 0  1.925 0.35875 0  2.2 0.35875 0  0 0.41 0  0.275 0.41 0  0.55 0.41 0  0.8250000000000001 0.41 0  1.1 0.41 0  1.375 0.41 0  1.65 0.41 0  1.925 0.41 0  2.2 0.41 0  </DataArray>
</Points>
<Cells>
<DataArray  type="UInt32"  Name="connectivity"  format="ascii">0 1 9  1 9 10  1 2 11  1 10 11  2 3 11  3 11 12  3 4 13  3 12 13  4 5 13  5 13 14  5 6 15  5 14 15  6 7 15  7 15 16  7 8 17  7 16 17  9 10 19  9 18 19  10 11 19  11 19 20  11 12 21  11 20 21  12 13 21  13 21 22  13 14 23  13 22 23  14 15 23  15 23 24  15 16 25  15 24 25  16 17 25  17 25 26  18 19 27  19 27 28  19 20 29  19 28 29  20 21 29  21 29 30  21 22 31  21 30 31  22 23 31  23 31 32  23 24 33  23 32 33  24 25 33  25 33 34  25 26 35  25 34 35  27 28 37  27 36 37  28 29 37  29 37 38  29 30 39  29 38 39  30 31 39  31 39 40  31 32 41  31 40 41  32 33 41  33 41 42  33 34 43  33 42 43  34 35 43  35 43 44  36 37 45  37 45 46  37 38 47  37 46 47  38 39 47  39 47 48  39 40 49  39 48 49  40 41 49  41 49 50  41 42 51  41 50 51  42 43 51  43 51 52  43 44 53  43 52 53  45 46 55  45 54 55  46 47 55  47 55 56  47 48 57  47 56 57  48 49 57  49 57 58  49 50 59  49 58 59  50 51 59  51 59 60  51 52 61  51 60 61  52 53 61  53 61 62  54 55 63  55 63 64  55 56 65  55 64 65  56 57 65  57 65 66  57 58 67  57 66 67  58 59 67  59 67 68  59 60 69  59 68 69  60 61 69  61 69 70  61 62 71  61 70 71  63 64 73  63 72 73  64 65 73  65 73 74  65 66 75  65 74 75  66 67 75  67 75 76  67 68 77  67 76 77  68 69 77  69 77 78  69 70 79  69 78 79  70 71 79  71 79 80  </DataArray>
<DataArray  type="UInt32"  Name="offsets"  format="ascii">3 6 9 12 15 18 21 24 27 30 33 36 39 42 45 48 51 54 57 60 63 66 69 72 75 78 81 84 87 90 93 96 99 102 105 108 111 114 117 120 123 126 129 132 135 138 141 144 147 150 153 156 159 162 165 168 171 174 177 180 183 186 189 192 195 198 201 204 207 210 213 216 219 222 225 228 231 234 237 240 243 246 249 252 255 258 261 264 267 270 273 276 279 282 285 288 291 294 297 300 303 306 309 312 315 318 321 324 327 330 333 336 339 342 345 348 351 354 357 360 363 366 369 372 375 378 381 384 </DataArray>
<DataArray  type="UInt8"  Name="types"  format="ascii">5 5 5 5 5 5 5 5 5 5 5 5 5 5 5 5 5 5 5 5 5 5 5 5 5 5 5 5 5 5 5 5 5 5 5 5 5 5 5 5 5 5 5 5 5 5 5 5 5 5 5 5 5 5 5 5 5 5 5 5 5 5 5 5 5 5 5 5 5 5 5 5 5 5 5 5 5 5 5 5 5 5 5 5 5 5 5 5 5 5 5 5 5 5 5 5 5 5 5 5 5 5 5 5 5 5 5 5 5 5 5 5 5 5 5 5 5 5 5 5 5 5 5 5 5 5 5 5 </DataArray>
</Cells>
<PointData  Vectors="f_16"> 
<DataArray  type="Float64"  Name="f_16"  NumberOfComponents="3" format="ascii">2.0489497332733643e-05 -4.3070615411224808e-09 0.0000000000000000e+00  -1.2010043448551940e-06 -7.5699194112411927e-11 0.0000000000000000e+00  1.0441013611180582e-06 -8.8117295765105306e-10 0.0000000000000000e+00  -8.2932646329332561e-06 9.9384661374773867e-10 0.0000000000000000e+00  -2.9407707555320059e-06 -1.1624965583929198e-10 0.0000000000000000e+00  -4.7728029918505988e-06 -8.3310943365284445e-10 0.0000000000000000e+00  -5.1842397132857489e-06 -1.9562499737031948e-10 0.0000000000000000e+00  -5.9236894900098954e-06 -4.9266415087410307e-10 0.0000000000000000e+00  -1.2419720477729191e-06 2.1284428070323773e-10 0.0000000000000000e+00  6.5624702220319930e-01 -3.2221509535033267e-10 0.0000000000000000e+00  6.5715700745179517e-01 -1.2961127749443172e-04 0.0000000000000000e+00  6.5836390032643344e-01 1.3527555790771248e-04 0.0000000000000000e+00  6.5821888764842629e-01 -3.3777233391324894e-05 0.0000000000000000e+00  6.5876614693837998e-01 -1.9755852417851599e-05 0.0000000000000000e+00  6.5862665100093620e-01 4.1360639075434923e-05 0.0000000000000000e+00  6.5834747954261641e-01 2.8425814511777789e-06 0.0000000000000000e+00  6.5748394420879253e-01 2.5861471962065599e-05 0.0000000000000000e+00  6.5743210913461814e-01 -2.8995734651399823e-05 0.0000000000000000e+00  1.1249841006022074e+00 6.8131938613025259e-10 0.0000000000000000e+00  1.1255674500903563e+00 -6.2149538935233500e-04 0.0000000000000000e+00  1.1238601502732108e+00 -1.5563578911319918e-04 0.0000000000000000e+00  1.1264820140174785e+00 -1.4617795205535867e-04 0.0000000000000000e+00  1.1256310605951370e+00 1.6631584023502262e-05 0.0000000000000000e+00  1.1252539116167479e+00 1.9511544267768099e-04 0.0000000000000000e+00  1.1251754625720241e+00 1.4205934233234573e-04 0.0000000000000000e+00  1.1246369324797103e+00 2.0335055765526190e-04 0.0000000000000000e+00  1.1241183303311617e+00 1.8493741540421708e-04 0.0000000000000000e+00  1.4062394803528835e+00 -3.0093468239248817e-10 0.0000000000000000e+00  1.4055586057630629e+00 -1.5676468361160018e-04 0.0000000000000000e+00  1.4068248723578225e+00 -1.5449041630524629e-04 0.0000000000000000e+00  1.4047900332002925e+00 -1.8889570695207930e-04 0.0000000000000000e+00  1.4072237695931020e+00 -1.6163931578185099e-04 0.0000000000000000e+00  1.4060211643930312e+00 1.0485047868183735e-04 0.0000000000000000e+00  1.4057279522951094e+00 1.5107534814185375e-04 0.0000000000000000e+00  1.4056376875881880e+00 2.2140214436763611e-04 0.0000000000000000e+00  1.4055336305880397e+00 1.6561767576459387e-04 0.0000000000000000e+00  1.4999818415664687e+00 8.7323642260778868e-10 0.0000000000000000e+00  1.5000380721837749e+00 -1.5637778466108621e-04 0.0000000000000000e+00  1.4989055757509950e+00 -1.8287731587490641e-04 0.0000000000000000e+00  1.4996953538559179e+00 -1.2622875592848101e-04 0.0000000000000000e+00  1.4973464903016647e+00 -6.2657054339719187e-05 0.0000000000000000e+00  1.4991759949701726e+00 8.9910804813979388e-05 0.0000000000000000e+00  1.4984992090302245e+00 2.9045353043584562e-04 0.0000000000000000e+00  1.4981228202639461e+00 4.6820082885922013e-04 0.0000000000000000e+00  1.4981540068980495e+00 3.5333216626850654e-04 0.0000000000000000e+00  1.4062361155925833e+00 8.5006605718995327e-10 0.0000000000000000e+00  1.4054678556307021e+00 -6.1061503502959056e-05 0.0000000000000000e+00  1.4059235037990794e+00 -2.2821815130620059e-04 0.0000000000000000e+00  1.4050191721922154e+00 -8.4320754766407203e-05 0.0000000000000000e+00  1.4064935332146522e+00 4.8230613768336194e-05 0.0000000000000000e+00  1.4036065122582335e+00 6.0067426701894453e-05 0.0000000000000000e+00  1.4066391973361734e+00 2.2969509502083032e-04 0.0000000000000000e+00  1.4052120464463527e+00 3.5956620826505729e-04 0.0000000000000000e+00  1.4050937965613293e+00 3.4112572272973642e-04 0.0000000000000000e+00  1.1249860140018413e+00 2.4950853401445373e-10 0.0000000000000000e+00  1.1252983363105602e+00 1.9269871666285386e-04 0.0000000000000000e+00  1.1248710972991076e+00 -7.2960964710595418e-05 0.0000000000000000e+00  1.1245104093691032e+00 -5.8581386888565151e-05 0.0000000000000000e+00  1.1240686343328739e+00 -2.6879084395386141e-05 0.0000000000000000e+00  1.1248073288305465e+00 -1.7444299026038981e-05 0.0000000000000000e+00  1.1226064437362822e+00 2.2755430534549762e-04 0.0000000000000000e+00  1.1251302818436999e+00 4.5391064106287631e-04 0.0000000000000000e+00  1.1241394223989574e+00 4.8771001158748843e-04 0.0000000000000000e+00  6.5624143949583902e-01 -3.0267255333029608e-10 0.0000000000000000e+00  6.5591138547051620e-01 2.3866894921734416e-05 0.0000000000000000e+00  6.5653243782543091e-01 -2.0575512080944590e-04 0.0000000000000000e+00  6.5621153231589180e-01 -1.8823638858076777e-05 0.0000000000000000e+00  6.5665520541712019e-01 -1.9535906829827902e-05 0.0000000000000000e+00  6.5573660282401902e-01 3.5261621392890824e-05 0.0000000000000000e+00  6.5792996419447591e-01 2.2244842186267834e-04 0.0000000000000000e+00  6.5580368126186439e-01 1.7992243570726527e-04 0.0000000000000000e+00  6.5986520046929786e-01 5.6025078955083388e-04 0.0000000000000000e+00  -7.0285330279010315e-06 -9.5832693362336946e-10 0.0000000000000000e+00  -7.2263016362768072e-06 -4.6508144963122216e-10 0.0000000000000000e+00  -4.6026107381987084e-06 -3.1231410969863379e-10 0.0000000000000000e+00  -6.2747886127840885e-06 7.7324194519841342e-10 0.0000000000000000e+00  -2.2757941175271137e-06 1.2845943008244943e-09 0.0000000000000000e+00  -6.9275969839230001e-06 -1.3606218235794511e-09 0.0000000000000000e+00  -7.0867859491352155e-06 -7.0992768563062066e-10 0.0000000000000000e+00  4.7682774514416590e-07 2.3006135034942993e-10 0.0000000000000000e+00  -1.0287171890921869e-05 -4.5165319196231078e-09 0.0000000000000000e+00  </DataArray> 
</PointData> 
</Piece>
</UnstructuredGrid>
</VTKFile>