<?xml version="1.0"?>
<VTKFile type="UnstructuredGrid"  version="0.1"  >
<UnstructuredGrid>
<Piece  NumberOfPoints="81" NumberOfCells="128">
<Points>
<DataArray  type="Float64"  NumberOfComponents="3"  format="ascii">0 0 0  0.275 0 0  0.55 0 0  0.8250000000000001 0 0  1.1 0 0  1.375 0 0  1.65 0 0  1.925 0 0  2.2 0 0  0 0.05125 0  0.275 0.05125 0  0.55 0.05125 0  0.8250000000000001 0.05125 0  1.1 0.05125 0  1.375 0.05125 0  1.65 0.05125 0  1.925 0.05125 0  2.2 0.05125 0  0 0.1025 0  0.275 0.1025 0  0.55 0.1025 0  0.8250000000000001 0.1025 0  1.1 0.1025 0  1.375 0.1025 0  1.65 0.1025 0  1.925 0.1025 0  2.2 0.1025 0  0 0.15375 0  0.275 0.15375 0  0.55 0.15375 0  0.8250000000000001 0.15375 0  1.1 0.15375 0  1.375 0.15375 0  1.65 0.15375 0  1.925 0.15375 0  2.2 0.15375 0  0 0.205 0  0.275 0.205 0  0.55 0.205 0  0.8250000000000001 0.205 0  1.1 0.205 0  1.375 0.205 0  1.65 0.205 0  1.925 0.205 0  2.2 0.205 0  0 0.25625 0  0.275 0.25625 0  0.55 0.25625 0  0.8250000000000001 0.25625 0  1.1 0.25625 0  1.375 0.25625 0  1.65 0.25625 0  1.925 0.25625 0  2.2 0.25625 0  0 0.3075 0  0.275 0.3075 0  0.55 0.3075 0  0.8250000000000001 0.3075 0  1.1 0.3075 0  1.375 0.3075 0  1.65 0.3075 0  1.925 0.3075 0  2.2 0.3075 0  0 0.35875 0  0.275 0.35875 0  0.55 0.35875 0  0.8250000000000001 0.35875 0  1.1 0.35875 0  1.375 0.35875 0  1.65 0.35875 0  1.925 0.35875 0  2.2 0.35875 0  0 0.41 0  0.275 0.41 0  0.55 0.41 0  0.8250000000000001 0.41 0  1.1 0.41 0  1.375 0.41 0  1.65 0.41 0  1.925 0.41 0  2.2 0.41 0  </DataArray>
</Points>
<Cells>
<DataArray  type="UInt32"  Name="connectivity"  format="ascii">0 1 9  1 9 10  1 2 11  1 10 11  2 3 11  3 11 12  3 4 13  3 12 13  4 5 13  5 13 14  5 6 15  5 14 15  6 7 15  7 15 16  7 8 17  7 16 17  9 10 19  9 18 19  10 11 19  11 19 20  11 12 21  11 20 21  12 13 21  13 21 22  13 14 23  13 22 23  14 15 23  15 23 24  15 16 25  15 24 25  16 17 25  17 25 26  18 19 27  19 27 28  19 20 29  19 28 29  20 21 29  21 29 30  21 22 31  21 30 31  22 23 31  23 31 32  23 24 33  23 32 33  24 25 33  25 33 34  25 26 35  25 34 35  27 28 37  27 36 37  28 29 37  29 37 38  29 30 39  29 38 39  30 31 39  31 39 40  31 32 41  31 40 41  32 33 41  33 41 42  33 34 43  33 42 43  34 35 43  35 43 44  36 37 45  37 45 46  37 38 47  37 46 47  38 39 47  39 47 48  39 40 49  39 48 49  40 41 49  41 49 50  41 42 51  41 50 51  42 43 51  43 51 52  43 44 53  43 52 53  45 46 55  45 54 55  46 47 55  47 55 56  47 48 57  47 56 57  48 49 57  49 57 58  49 50 59  49 58 59  50 51 59  51 59 60  51 52 61  51 60 61  52 53 61  53 61 62  54 55 63  55 63 64  55 56 65  55 64 65  56 57 65  57 65 66  57 58 67  57 66 67  58 59 67  59 67 68  59 60 69  59 68 69  60 61 69  61 69 70  61 62 71  61 70 71  63 64 73  63 72 73  64 65 73  65 73 74  65 66 75  65 74 75  66 67 75  67 75 76  67 68 77  67 76 77  68 69 77  69 77 78  69 70 79  69 78 79  70 71 79  71 79 80  </DataArray>
<DataArray  type="UInt32"  Name="offsets"  format="ascii">3 6 9 12 15 18 21 24 27 30 33 36 39 42 45 48 51 54 57 60 63 66 69 72 75 78 81 84 87 90 93 96 99 102 105 108 111 114 117 120 123 126 129 132 135 138 141 144 147 150 153 156 159 162 165 168 171 174 177 180 183 186 189 192 195 198 201 204 207 210 213 216 219 222 225 228 231 234 237 240 243 246 249 252 255 258 261 264 267 270 273 276 279 282 285 288 291 294 297 300 303 306 309 312 315 318 321 324 327 330 333 336 339 342 345 348 351 354 357 360 363 366 369 372 375 378 381 384 </DataArray>
<DataArray  type="UInt8"  Name="types"  format="ascii">5 5 5 5 5 5 5 5 5 5 5 5 5 5 5 5 5 5 5 5 5 5 5 5 5 5 5 5 5 5 5 5 5 5 5 5 5 5 5 5 5 5 5 5 5 5 5 5 5 5 5 5 5 5 5 5 5 5 5 5 5 5 5 5 5 5 5 5 5 5 5 5 5 5 5 5 5 5 5 5 5 5 5 5 5 5 5 5 5 5 5 5 5 5 5 5 5 5 5 5 5 5 5 5 5 5 5 5 5 5 5 5 5 5 5 5 5 5 5 5 5 5 5 5 5 5 5 5 </DataArray>
</Cells>
<PointData  Vectors="f_16"> 
<DataArray  type="Float64"  Name="f_16"  NumberOfComponents="3" format="ascii">2.1073264059318112e-05 -3.2643175299289281e-08 0.0000000000000000e+00  -9.9215481866524168e-07 -4.2908260823036206e-08 0.0000000000000000e+00  1.8024709017948524e-06 -4.2292974345696664e-08 0.0000000000000000e+00  -8.5673074049047958e-06 7.1801834553284532e-08 0.0000000000000000e+00  -3.9445976418967611e-06 -4.6942353910976054e-08 0.0000000000000000e+00  -5.5261765288390684e-06 1.0576960547111193e-07 0.0000000000000000e+00  -7.2947729109069328e-06 4.5051020894938872e-09 0.0000000000000000e+00  -6.9292332521361872e-06 -5.2716943605080342e-08 0.0000000000000000e+00  -3.9405959303453127e-06 3.5717869389216017e-08 0.0000000000000000e+00  6.5624713714544691e-01 1.2451112946922596e-08 0.0000000000000000e+00  6.6316725617009875e-01 -1.3201607374521390e-03 0.0000000000000000e+00  6.6441041913078591e-01 -3.1461424742916804e-04 0.0000000000000000e+00  6.9667087125237781e-01 -7.4311177093663817e-03 0.0000000000000000e+00  8.0079192206844474e-01 -1.6786955227055363e-02 0.0000000000000000e+00  8.9322752265948224e-01 -5.6388891321794195e-03 0.0000000000000000e+00  9.0104805607214811e-01 2.2934359967774751e-03 0.0000000000000000e+00  9.0274647129168750e-01 -5.7645655427841129e-03 0.0000000000000000e+00  8.8884967198504905e-01 8.1797336059168911e-03 0.0000000000000000e+00  1.1249841921852661e+00 -3.8235908010187817e-08 0.0000000000000000e+00  1.1263426823437410e+00 -5.7820729160518029e-04 0.0000000000000000e+00  1.1181856930506966e+00 -9.9528294573546249e-04 0.0000000000000000e+00  1.1232790057621020e+00 -1.7285312076742596e-02 0.0000000000000000e+00  1.1131992871702474e+00 -2.4586755721674510e-02 0.0000000000000000e+00  1.1482733132965810e+00 -1.9352939266749133e-02 0.0000000000000000e+00  1.1852035118746096e+00 1.8816943364396385e-03 0.0000000000000000e+00  1.1742771679458111e+00 -7.8959057369515188e-03 0.0000000000000000e+00  1.1854235532907627e+00 6.2554415685087015e-03 0.0000000000000000e+00  1.4062397350543454e+00 -4.6829348348565731e-08 0.0000000000000000e+00  1.4020540400693182e+00 1.1424346832588760e-03 0.0000000000000000e+00  1.3992996472001753e+00 -1.8683446526116102e-03 0.0000000000000000e+00  1.3899488556996844e+00 -1.1161074584395261e-02 0.0000000000000000e+00  1.3307978182555504e+00 -1.4763671390388868e-02 0.0000000000000000e+00  1.2252503089436004e+00 -2.1617289333883096e-02 0.0000000000000000e+00  1.2065821537466042e+00 1.1070394654936009e-03 0.0000000000000000e+00  1.2120247024118449e+00 -1.5814295542493034e-03 0.0000000000000000e+00  1.2195426729854997e+00 2.7965089794244752e-03 0.0000000000000000e+00  1.4999817615029363e+00 -3.2898683804035501e-08 0.0000000000000000e+00  1.4969836835002015e+00 -1.4333292817816066e-04 0.0000000000000000e+00  1.4913371448810653e+00 -9.6689334954393996e-05 0.0000000000000000e+00  1.4834791281238300e+00 3.3900532742879444e-05 0.0000000000000000e+00  1.4000604577922162e+00 -3.9714118171094403e-05 0.0000000000000000e+00  1.2549240166372455e+00 1.7188013856775640e-05 0.0000000000000000e+00  1.2068418246996706e+00 1.5550178934283388e-04 0.0000000000000000e+00  1.2128453474357521e+00 2.3350942527248047e-04 0.0000000000000000e+00  1.2208646200024817e+00 5.7255836808219235e-05 0.0000000000000000e+00  1.4062365093948885e+00 1.1626500611250355e-08 0.0000000000000000e+00  1.4020100637011397e+00 -1.3026189196472264e-03 0.0000000000000000e+00  1.3984666125133522e+00 1.6338063395798150e-03 0.0000000000000000e+00  1.3904888381900062e+00 1.1100750741760241e-02 0.0000000000000000e+00  1.3304567098486260e+00 1.4743071301237335e-02 0.0000000000000000e+00  1.2228812241762470e+00 2.1602814027947496e-02 0.0000000000000000e+00  1.2079298620427548e+00 -9.9699167194919878e-04 0.0000000000000000e+00  1.2114241726570190e+00 1.8011403382128012e-03 0.0000000000000000e+00  1.2187782405677268e+00 -2.9646379749915771e-03 0.0000000000000000e+00  1.1249859139001803e+00 2.7653280931748500e-08 0.0000000000000000e+00  1.1260814045601573e+00 1.5108809282276582e-04 0.0000000000000000e+00  1.1193858755485988e+00 8.7602369237430651e-04 0.0000000000000000e+00  1.1219399595988055e+00 1.7266724960258301e-02 0.0000000000000000e+00  1.1127647148333497e+00 2.4663202429315256e-02 0.0000000000000000e+00  1.1485862525022150e+00 1.9343119562937612e-02 0.0000000000000000e+00  1.1832021841181617e+00 -1.7933104873802887e-03 0.0000000000000000e+00  1.1746165964009112e+00 8.3026740660733633e-03 0.0000000000000000e+00  1.1847360412188042e+00 -6.0636366271699920e-03 0.0000000000000000e+00  6.5624172521051372e-01 -2.0849612611043900e-08 0.0000000000000000e+00  6.6184704224853386e-01 1.2084429481653931e-03 0.0000000000000000e+00  6.6284785878604302e-01 3.0217193282041033e-04 0.0000000000000000e+00  6.9541632145953602e-01 7.4119626904768756e-03 0.0000000000000000e+00  7.9989763636230193e-01 1.6756837836361744e-02 0.0000000000000000e+00  8.9177177941110863e-01 5.6500083781050835e-03 0.0000000000000000e+00  9.0088652251594237e-01 -2.1989079801978655e-03 0.0000000000000000e+00  9.0059494613155155e-01 5.8558897437856515e-03 0.0000000000000000e+00  8.8990391182205864e-01 -7.9532025848051847e-03 0.0000000000000000e+00  -6.8301176367538094e-06 -1.2596067469003346e-08 0.0000000000000000e+00  -7.0383794005041939e-06 2.3044969520911464e-08 0.0000000000000000e+00  -4.0541233790951134e-06 3.5907912315126979e-08 0.0000000000000000e+00  -5.8982850219418859e-06 -2.0778181377574377e-08 0.0000000000000000e+00  -2.9134302339800749e-06 -1.9150816415397644e-08 0.0000000000000000e+00  -7.3544587868139070e-06 -1.6055463999565505e-07 0.0000000000000000e+00  -8.3884445358457288e-06 -8.4313562240778786e-08 0.0000000000000000e+00  1.3059194270102020e-06 6.1566261766974560e-08 0.0000000000000000e+00  -1.1455883916383124e-05 -1.9840833557251619e-08 0.0000000000000000e+00  </DataArray> 
</PointData> 
</Piece>
</UnstructuredGrid>
</VTKFile>