<?xml version="1.0"?>
<VTKFile type="UnstructuredGrid"  version="0.1"  >
<UnstructuredGrid>
<Piece  NumberOfPoints="81" NumberOfCells="128">
<Points>
<DataArray  type="Float64"  NumberOfComponents="3"  format="ascii">0 0 0  0.275 0 0  0.55 0 0  0.8250000000000001 0 0  1.1 0 0  1.375 0 0  1.65 0 0  1.925 0 0  2.2 0 0  0 0.05125 0  0.275 0.05125 0  0.55 0.05125 0  0.8250000000000001 0.05125 0  1.1 0.05125 0  1.375 0.05125 0  1.65 0.05125 0  1.925 0.05125 0  2.2 0.05125 0  0 0.1025 0  0.275 0.1025 0  0.55 0.1025 0  0.8250000000000001 0.1025 0  1.1 0.1025 0  1.375 0.1025 0  1.65 0.1025 0  1.925 0.1025 0  2.2 0.1025 0  0 0.15375 0  0.275 0.15375 0  0.55 0.15375 0  0.8250000000000001 0.15375 0  1.1 0.15375 0  1.375 0.15375 0  1.65 0.15375 0  1.925 0.15375 0  2.2 0.15375 0  0 0.205 0  0.275 0.205 0  0.55 0.205 0  0.8250000000000001 0.205 0  1.1 0.205 0  1.375 0.205 0  1.65 0.205 0  1.925 0.205 0  2.2 0.205 0  0 0.25625 0  0.275 0.25625 0  0.55 0.25625 0  0.8250000000000001 0.25625 0  1.1 0.25625 0  1.375 0.25625 0  1.65 0.25625 0  1.925 0.25625 0  2.2 0.25625 0  0 0.3075 0  0.275 0.3075 0  0.55 0.3075 0  0.8250000000000001 0.3075 0  1.1 0.3075 0  1.375 0.3075 0  1.65 0.3075 0  1.925 0.3075 0  2.2 0.3075 0  0 0.35875 0  0.275 0.35875 0  0.55 0.35875 0  0.8250000000000001 0.35875 0  1.1 0.35875 0  1.375 0.35875 0  1.65 0.35875 0  1.925 0.35875 0  2.2 0.35875 0  0 0.41 0  0.275 0.41 0  0.55 0.41 0  0.8250000000000001 0.41 0  1.1 0.41 0  1.375 0.41 0  1.65 0.41 0  1.925 0.41 0  2.2 0.41 0  </DataArray>
</Points>
<Cells>
<DataArray  type="UInt32"  Name="connectivity"  format="ascii">0 1 9  1 9 10  1 2 11  1 10 11  2 3 11  3 11 12  3 4 13  3 12 13  4 5 13  5 13 14  5 6 15  5 14 15  6 7 15  7 15 16  7 8 17  7 16 17  9 10 19  9 18 19  10 11 19  11 19 20  11 12 21  11 20 21  12 13 21  13 21 22  13 14 23  13 22 23  14 15 23  15 23 24  15 16 25  15 24 25  16 17 25  17 25 26  18 19 27  19 27 28  19 20 29  19 28 29  20 21 29  21 29 30  21 22 31  21 30 31  22 23 31  23 31 32  23 24 33  23 32 33  24 25 33  25 33 34  25 26 35  25 34 35  27 28 37  27 36 37  28 29 37  29 37 38  29 30 39  29 38 39  30 31 39  31 39 40  31 32 41  31 40 41  32 33 41  33 41 42  33 34 43  33 42 43  34 35 43  35 43 44  36 37 45  37 45 46  37 38 47  37 46 47  38 39 47  39 47 48  39 40 49  39 48 49  40 41 49  41 49 50  41 42 51  41 50 51  42 43 51  43 51 52  43 44 53  43 52 53  45 46 55  45 54 55  46 47 55  47 55 56  47 48 57  47 56 57  48 49 57  49 57 58  49 50 59  49 58 59  50 51 59  51 59 60  51 52 61  51 60 61  52 53 61  53 61 62  54 55 63  55 63 64  55 56 65  55 64 65  56 57 65  57 65 66  57 58 67  57 66 67  58 59 67  59 67 68  59 60 69  59 68 69  60 61 69  61 69 70  61 62 71  61 70 71  63 64 73  63 72 73  64 65 73  65 73 74  65 66 75  65 74 75  66 67 75  67 75 76  67 68 77  67 76 77  68 69 77  69 77 78  69 70 79  69 78 79  70 71 79  71 79 80  </DataArray>
<DataArray  type="UInt32"  Name="offsets"  format="ascii">3 6 9 12 15 18 21 24 27 30 33 36 39 42 45 48 51 54 57 60 63 66 69 72 75 78 81 84 87 90 93 96 99 102 105 108 111 114 117 120 123 126 129 132 135 138 141 144 147 150 153 156 159 162 165 168 171 174 177 180 183 186 189 192 195 198 201 204 207 210 213 216 219 222 225 228 231 234 237 240 243 246 249 252 255 258 261 264 267 270 273 276 279 282 285 288 291 294 297 300 303 306 309 312 315 318 321 324 327 330 333 336 339 342 345 348 351 354 357 360 363 366 369 372 375 378 381 384 </DataArray>
<DataArray  type="UInt8"  Name="types"  format="ascii">5 5 5 5 5 5 5 5 5 5 5 5 5 5 5 5 5 5 5 5 5 5 5 5 5 5 5 5 5 5 5 5 5 5 5 5 5 5 5 5 5 5 5 5 5 5 5 5 5 5 5 5 5 5 5 5 5 5 5 5 5 5 5 5 5 5 5 5 5 5 5 5 5 5 5 5 5 5 5 5 5 5 5 5 5 5 5 5 5 5 5 5 5 5 5 5 5 5 5 5 5 5 5 5 5 5 5 5 5 5 5 5 5 5 5 5 5 5 5 5 5 5 5 5 5 5 5 5 </DataArray>
</Cells>
<PointData  Vectors="f_16"> 
<DataArray  type="Float64"  Name="f_16"  NumberOfComponents="3" format="ascii">2.0547450687526902e-05 -1.5410020166109846e-09 0.0000000000000000e+00  -1.1929804914091623e-06 -4.8915033958726224e-09 0.0000000000000000e+00  1.1457139070838228e-06 -2.6431721297600414e-09 0.0000000000000000e+00  -8.1999603103432259e-06 8.8885080871497407e-09 0.0000000000000000e+00  -2.9343868579931274e-06 7.6200872240440551e-10 0.0000000000000000e+00  -4.8340905398128006e-06 3.0198160395621814e-08 0.0000000000000000e+00  -5.8633780698673046e-06 4.9684139404505850e-08 0.0000000000000000e+00  -6.5728551371334335e-06 3.9555651744100933e-08 0.0000000000000000e+00  -2.8002332481991470e-06 3.9341831643271977e-08 0.0000000000000000e+00  6.5624706042587033e-01 -2.4390295713149247e-09 0.0000000000000000e+00  6.5754868369977559e-01 -1.3998675784000463e-04 0.0000000000000000e+00  6.5777581703896870e-01 3.4494026956175688e-04 0.0000000000000000e+00  6.5844592297892079e-01 -1.0718584849953232e-04 0.0000000000000000e+00  6.6220936866011859e-01 -8.6364471019543176e-04 0.0000000000000000e+00  6.8554394883951930e-01 -4.4831194073543272e-03 0.0000000000000000e+00  7.3292543511824693e-01 -7.8304665663373619e-03 0.0000000000000000e+00  7.8843410475398845e-01 -6.6536524246254133e-03 0.0000000000000000e+00  8.1841454309578043e-01 1.0399590863808244e-03 0.0000000000000000e+00  1.1249841969820216e+00 -1.4085723310435279e-08 0.0000000000000000e+00  1.1247203310956559e+00 -3.3011066655518680e-04 0.0000000000000000e+00  1.1233007533780177e+00 -7.3607332143126765e-05 0.0000000000000000e+00  1.1274804514937227e+00 -8.5929876878882794e-04 0.0000000000000000e+00  1.1279550177168700e+00 -1.3072831132179717e-03 0.0000000000000000e+00  1.1249711742947821e+00 -7.6462419837580306e-03 0.0000000000000000e+00  1.1214544552035990e+00 -1.5080421950987005e-02 0.0000000000000000e+00  1.1357535225140458e+00 -1.6493803295199470e-02 0.0000000000000000e+00  1.1740167589995341e+00 -5.7411826892373400e-03 0.0000000000000000e+00  1.4062397048347266e+00 -1.1203805669494833e-08 0.0000000000000000e+00  1.4044482033592585e+00 1.4814711494225298e-04 0.0000000000000000e+00  1.4069362055365469e+00 -5.0280526964176285e-04 0.0000000000000000e+00  1.4078797612260814e+00 -5.9221558179386427e-04 0.0000000000000000e+00  1.4069751139202116e+00 1.8860820129146415e-04 0.0000000000000000e+00  1.3903119079375119e+00 -4.8422636488082435e-03 0.0000000000000000e+00  1.3560518399429435e+00 -1.1338020420608021e-02 0.0000000000000000e+00  1.3101690665098642e+00 -1.1371362162333504e-02 0.0000000000000000e+00  1.2667047357412011e+00 -9.2854986193947279e-03 0.0000000000000000e+00  1.4999819236940695e+00 -1.3470733274576595e-09 0.0000000000000000e+00  1.4981556849590518e+00 -1.4708841881234429e-04 0.0000000000000000e+00  1.4999393902077240e+00 -1.5773276511271898e-04 0.0000000000000000e+00  1.5037840609276441e+00 -8.4126356438021717e-05 0.0000000000000000e+00  1.4946323317457444e+00 2.4115448471118473e-05 0.0000000000000000e+00  1.4810198674875072e+00 1.7757692936528060e-04 0.0000000000000000e+00  1.4353170120999350e+00 1.3231591308559263e-04 0.0000000000000000e+00  1.3772563627075216e+00 1.3613954346546585e-04 0.0000000000000000e+00  1.2903273344260124e+00 8.2000319036438978e-05 0.0000000000000000e+00  1.4062363658026049e+00 1.1646405018330745e-08 0.0000000000000000e+00  1.4043717400305646e+00 -3.4902175242548160e-04 0.0000000000000000e+00  1.4060411970458160e+00 1.4259223261848365e-04 0.0000000000000000e+00  1.4081827117268007e+00 4.0722993997201841e-04 0.0000000000000000e+00  1.4065188145936627e+00 -1.1563430104584408e-04 0.0000000000000000e+00  1.3882951917318127e+00 5.0739378695842021e-03 0.0000000000000000e+00  1.3572912958596168e+00 1.1461267730966273e-02 0.0000000000000000e+00  1.3096131232547317e+00 1.1439019487867054e-02 0.0000000000000000e+00  1.2656021547089487e+00 9.2518399481064609e-03 0.0000000000000000e+00  1.1249860740991584e+00 1.6438568662124987e-08 0.0000000000000000e+00  1.1244353408692003e+00 -9.5364584267781146e-05 0.0000000000000000e+00  1.1243628403206949e+00 -1.2946979404008098e-04 0.0000000000000000e+00  1.1256074339809816e+00 7.0066517153431318e-04 0.0000000000000000e+00  1.1268482625557164e+00 1.3919171431399861e-03 0.0000000000000000e+00  1.1253600865041664e+00 7.9167324148274182e-03 0.0000000000000000e+00  1.1195244396914799e+00 1.5232139848820251e-02 0.0000000000000000e+00  1.1360046071685419e+00 1.6720935986656790e-02 0.0000000000000000e+00  1.1727714384696752e+00 6.0501375251488052e-03 0.0000000000000000e+00  6.5624160535766318e-01 1.8306692572028630e-09 0.0000000000000000e+00  6.5626475255666505e-01 3.3869888983004313e-05 0.0000000000000000e+00  6.5596329038964918e-01 -4.0874288122660170e-04 0.0000000000000000e+00  6.5661607319761961e-01 6.6707902041007763e-05 0.0000000000000000e+00  6.6052158538986494e-01 8.5084934738283895e-04 0.0000000000000000e+00  6.8352393643090226e-01 4.5671505866640037e-03 0.0000000000000000e+00  7.3315750649558453e-01 7.9723906463878402e-03 0.0000000000000000e+00  7.8642633772996473e-01 6.7181830839377604e-03 0.0000000000000000e+00  8.1961273771800303e-01 -6.5407400344914617e-04 0.0000000000000000e+00  -6.9899306009394034e-06 -8.0903898988374971e-09 0.0000000000000000e+00  -7.2343022839162527e-06 -7.9798324277828810e-11 0.0000000000000000e+00  -4.5534253239379178e-06 -1.5211051444846722e-09 0.0000000000000000e+00  -6.2393080784618138e-06 3.0786940165337331e-09 0.0000000000000000e+00  -2.2719876465632827e-06 4.9129714763051456e-08 0.0000000000000000e+00  -6.8924613860949676e-06 -1.3936451016881972e-09 0.0000000000000000e+00  -7.4895232476654521e-06 -4.1572950720369958e-08 0.0000000000000000e+00  6.8155567208573984e-07 3.7911456339567732e-09 0.0000000000000000e+00  -1.0912699046433616e-05 -1.2023641844703350e-07 0.0000000000000000e+00  </DataArray> 
</PointData> 
</Piece>
</UnstructuredGrid>
</VTKFile>