<?xml version="1.0"?>
<VTKFile type="UnstructuredGrid"  version="0.1"  >
<UnstructuredGrid>
<Piece  NumberOfPoints="81" NumberOfCells="128">
<Points>
<DataArray  type="Float64"  NumberOfComponents="3"  format="ascii">0 0 0  0.275 0 0  0.55 0 0  0.8250000000000001 0 0  1.1 0 0  1.375 0 0  1.65 0 0  1.925 0 0  2.2 0 0  0 0.05125 0  0.275 0.05125 0  0.55 0.05125 0  0.8250000000000001 0.05125 0  1.1 0.05125 0  1.375 0.05125 0  1.65 0.05125 0  1.925 0.05125 0  2.2 0.05125 0  0 0.1025 0  0.275 0.1025 0  0.55 0.1025 0  0.8250000000000001 0.1025 0  1.1 0.1025 0  1.375 0.1025 0  1.65 0.1025 0  1.925 0.1025 0  2.2 0.1025 0  0 0.15375 0  0.275 0.15375 0  0.55 0.15375 0  0.8250000000000001 0.15375 0  1.1 0.15375 0  1.375 0.15375 0  1.65 0.15375 0  1.925 0.15375 0  2.2 0.15375 0  0 0.205 0  0.275 0.205 0  0.55 0.205 0  0.8250000000000001 0.205 0  1.1 0.205 0  1.375 0.205 0  1.65 0.205 0  1.925 0.205 0  2.2 0.205 0  0 0.25625 0  0.275 0.25625 0  0.55 0.25625 0  0.8250000000000001 0.25625 0  1.1 0.25625 0  1.375 0.25625 0  1.65 0.25625 0  1.925 0.25625 0  2.2 0.25625 0  0 0.3075 0  0.275 0.3075 0  0.55 0.3075 0  0.8250000000000001 0.3075 0  1.1 0.3075 0  1.375 0.3075 0  1.65 0.3075 0  1.925 0.3075 0  2.2 0.3075 0  0 0.35875 0  0.275 0.35875 0  0.55 0.35875 0  0.8250000000000001 0.35875 0  1.1 0.35875 0  1.375 0.35875 0  1.65 0.35875 0  1.925 0.35875 0  2.2 0.35875 0  0 0.41 0  0.275 0.41 0  0.55 0.41 0  0.8250000000000001 0.41 0  1.1 0.41 0  1.375 0.41 0  1.65 0.41 0  1.925 0.41 0  2.2 0.41 0  </DataArray>
</Points>
<Cells>
<DataArray  type="UInt32"  Name="connectivity"  format="ascii">0 1 9  1 9 10  1 2 11  1 10 11  2 3 11  3 11 12  3 4 13  3 12 13  4 5 13  5 13 14  5 6 15  5 14 15  6 7 15  7 15 16  7 8 17  7 16 17  9 10 19  9 18 19  10 11 19  11 19 20  11 12 21  11 20 21  12 13 21  13 21 22  13 14 23  13 22 23  14 15 23  15 23 24  15 16 25  15 24 25  16 17 25  17 25 26  18 19 27  19 27 28  19 20 29  19 28 29  20 21 29  21 29 30  21 22 31  21 30 31  22 23 31  23 31 32  23 24 33  23 32 33  24 25 33  25 33 34  25 26 35  25 34 35  27 28 37  27 36 37  28 29 37  29 37 38  29 30 39  29 38 39  30 31 39  31 39 40  31 32 41  31 40 41  32 33 41  33 41 42  33 34 43  33 42 43  34 35 43  35 43 44  36 37 45  37 45 46  37 38 47  37 46 47  38 39 47  39 47 48  39 40 49  39 48 49  40 41 49  41 49 50  41 42 51  41 50 51  42 43 51  43 51 52  43 44 53  43 52 53  45 46 55  45 54 55  46 47 55  47 55 56  47 48 57  47 56 57  48 49 57  49 57 58  49 50 59  49 58 59  50 51 59  51 59 60  51 52 61  51 60 61  52 53 61  53 61 62  54 55 63  55 63 64  55 56 65  55 64 65  56 57 65  57 65 66  57 58 67  57 66 67  58 59 67  59 67 68  59 60 69  59 68 69  60 61 69  61 69 70  61 62 71  61 70 71  63 64 73  63 72 73  64 65 73  65 73 74  65 66 75  65 74 75  66 67 75  67 75 76  67 68 77  67 76 77  68 69 77  69 77 78  69 70 79  69 78 79  70 71 79  71 79 80  </DataArray>
<DataArray  type="UInt32"  Name="offsets"  format="ascii">3 6 9 12 15 18 21 24 27 30 33 36 39 42 45 48 51 54 57 60 63 66 69 72 75 78 81 84 87 90 93 96 99 102 105 108 111 114 117 120 123 126 129 132 135 138 141 144 147 150 153 156 159 162 165 168 171 174 177 180 183 186 189 192 195 198 201 204 207 210 213 216 219 222 225 228 231 234 237 240 243 246 249 252 255 258 261 264 267 270 273 276 279 282 285 288 291 294 297 300 303 306 309 312 315 318 321 324 327 330 333 336 339 342 345 348 351 354 357 360 363 366 369 372 375 378 381 384 </DataArray>
<DataArray  type="UInt8"  Name="types"  format="ascii">5 5 5 5 5 5 5 5 5 5 5 5 5 5 5 5 5 5 5 5 5 5 5 5 5 5 5 5 5 5 5 5 5 5 5 5 5 5 5 5 5 5 5 5 5 5 5 5 5 5 5 5 5 5 5 5 5 5 5 5 5 5 5 5 5 5 5 5 5 5 5 5 5 5 5 5 5 5 5 5 5 5 5 5 5 5 5 5 5 5 5 5 5 5 5 5 5 5 5 5 5 5 5 5 5 5 5 5 5 5 5 5 5 5 5 5 5 5 5 5 5 5 5 5 5 5 5 5 </DataArray>
</Cells>
<PointData  Vectors="f_16"> 
<DataArray  type="Float64"  Name="f_16"  NumberOfComponents="3" format="ascii">2.0557930260346771e-05 -1.1366754286477679e-08 0.0000000000000000e+00  -1.2253522967931328e-06 -5.9563597722950109e-09 0.0000000000000000e+00  1.1794430932282301e-06 -2.0231789607691312e-08 0.0000000000000000e+00  -8.1316492959969027e-06 2.1613720934374688e-08 0.0000000000000000e+00  -2.9776249791398025e-06 2.0849447536759594e-08 0.0000000000000000e+00  -4.9837835967838653e-06 1.7900677489993508e-08 0.0000000000000000e+00  -6.1154622801269089e-06 4.7475641659662055e-08 0.0000000000000000e+00  -6.7315812308780572e-06 4.3915008566514378e-08 0.0000000000000000e+00  -3.2304012177644003e-06 2.2047251452848132e-08 0.0000000000000000e+00  6.5624701314786138e-01 9.4985884350814385e-09 0.0000000000000000e+00  6.5757156746641410e-01 -2.6393891437320429e-04 0.0000000000000000e+00  6.5895407501719117e-01 2.7931610644415408e-05 0.0000000000000000e+00  6.6021132822380635e-01 -1.4399100192854391e-04 0.0000000000000000e+00  6.6607670043207090e-01 -2.1683543415016784e-03 0.0000000000000000e+00  7.0480575527798872e-01 -6.4404199874041048e-03 0.0000000000000000e+00  7.7104892653777013e-01 -7.3732258491318722e-03 0.0000000000000000e+00  8.2629703494442364e-01 -4.7099455023182756e-03 0.0000000000000000e+00  8.2999376544405201e-01 1.4514990386489659e-03 0.0000000000000000e+00  1.1249841785158190e+00 1.9580012278348822e-08 0.0000000000000000e+00  1.1255149168579190e+00 -9.8557422154570487e-04 0.0000000000000000e+00  1.1234135457925205e+00 4.8310888347574210e-04 0.0000000000000000e+00  1.1234321399029135e+00 2.9331103381166526e-04 0.0000000000000000e+00  1.1236708200887311e+00 -3.5688794466011337e-03 0.0000000000000000e+00  1.1251836230336332e+00 -1.3289969337166729e-02 0.0000000000000000e+00  1.1275014111897255e+00 -1.5444630150706920e-02 0.0000000000000000e+00  1.1547330968891951e+00 -1.5973157131341818e-02 0.0000000000000000e+00  1.1872128650337010e+00 2.9741877507603594e-03 0.0000000000000000e+00  1.4062396639502557e+00 1.0240270574776023e-08 0.0000000000000000e+00  1.4065383498675366e+00 2.7545951320277045e-05 0.0000000000000000e+00  1.4051962485888072e+00 9.5965152765495267e-04 0.0000000000000000e+00  1.4009170801373605e+00 -9.2047874882787619e-04 0.0000000000000000e+00  1.4042796761895062e+00 -2.4710442908544325e-03 0.0000000000000000e+00  1.3808636237360734e+00 -7.9600918079406145e-03 0.0000000000000000e+00  1.3279569986151498e+00 -1.1759417863083283e-02 0.0000000000000000e+00  1.2730722707669875e+00 -1.5122992650285366e-02 0.0000000000000000e+00  1.2608295716304865e+00 5.8139023971237711e-04 0.0000000000000000e+00  1.4999818924815720e+00 -8.7724968022474070e-10 0.0000000000000000e+00  1.5031796334383696e+00 -1.5189004361446830e-04 0.0000000000000000e+00  1.4963110720796473e+00 -1.5566725826010835e-04 0.0000000000000000e+00  1.4945904678754323e+00 -6.3748933590276985e-05 0.0000000000000000e+00  1.4942959612044413e+00 2.0332824954400257e-05 0.0000000000000000e+00  1.4680045038207339e+00 1.6916668928967867e-04 0.0000000000000000e+00  1.3981429360195603e+00 1.0745791755402087e-04 0.0000000000000000e+00  1.3165465496674282e+00 1.4615066841126110e-04 0.0000000000000000e+00  1.2679477213795269e+00 1.2548646617664753e-04 0.0000000000000000e+00  1.4062363355715448e+00 -1.3392029406813499e-08 0.0000000000000000e+00  1.4064601896377902e+00 -2.2808492624942368e-04 0.0000000000000000e+00  1.4043801461102474e+00 -1.3079912482049166e-03 0.0000000000000000e+00  1.4012706895743470e+00 7.6968339872266422e-04 0.0000000000000000e+00  1.4038035794046408e+00 2.5614062349565490e-03 0.0000000000000000e+00  1.3788594427958929e+00 8.1630492745536389e-03 0.0000000000000000e+00  1.3291244603295889e+00 1.1823386425960912e-02 0.0000000000000000e+00  1.2723937299760999e+00 1.5205982222850233e-02 0.0000000000000000e+00  1.2597453866085138e+00 -4.9975839568031360e-04 0.0000000000000000e+00  1.1249860526236171e+00 -2.0719386349395875e-08 0.0000000000000000e+00  1.1252177376917774e+00 5.5480594608342125e-04 0.0000000000000000e+00  1.1245050578484479e+00 -6.7074686128403178e-04 0.0000000000000000e+00  1.1216871217704356e+00 -4.2254812924239356e-04 0.0000000000000000e+00  1.1227032968815258e+00 3.6640602648490088e-03 0.0000000000000000e+00  1.1255795784286791e+00 1.3536115671781325e-02 0.0000000000000000e+00  1.1254780839005187e+00 1.5574163674617886e-02 0.0000000000000000e+00  1.1548796955286529e+00 1.6186920093075444e-02 0.0000000000000000e+00  1.1860863316356636e+00 -2.6006095280061720e-03 0.0000000000000000e+00  6.5624158562100865e-01 -1.2564824262693437e-08 0.0000000000000000e+00  6.5627639433054008e-01 1.5672081715062638e-04 0.0000000000000000e+00  6.5713552187530966e-01 -8.6954245818714161e-05 0.0000000000000000e+00  6.5844786908729502e-01 1.1336876873196039e-04 0.0000000000000000e+00  6.6455942927353628e-01 2.1601388806565041e-03 0.0000000000000000e+00  7.0294936664826324e-01 6.5084197896517421e-03 0.0000000000000000e+00  7.7119163991049489e-01 7.5068056959063933e-03 0.0000000000000000e+00  8.2409568366394415e-01 4.7761696428437707e-03 0.0000000000000000e+00  8.3125327618922085e-01 -1.0568386562652247e-03 0.0000000000000000e+00  -7.0029272973305602e-06 1.9385585528775867e-10 0.0000000000000000e+00  -7.2774101995767738e-06 2.3393717031779143e-09 0.0000000000000000e+00  -4.5199707844474585e-06 2.1790673708358048e-08 0.0000000000000000e+00  -6.1202375600886769e-06 -3.3912411046021429e-09 0.0000000000000000e+00  -2.2529998422938424e-06 3.0636162879733993e-08 0.0000000000000000e+00  -6.9687758528253287e-06 1.6833913126117689e-08 0.0000000000000000e+00  -7.7793394507905502e-06 -4.1727321522855240e-08 0.0000000000000000e+00  7.7762488505611544e-07 -3.6007669633447817e-08 0.0000000000000000e+00  -1.1176431247827690e-05 -7.8808898476584188e-08 0.0000000000000000e+00  </DataArray> 
</PointData> 
</Piece>
</UnstructuredGrid>
</VTKFile>