<?xml version="1.0"?>
<VTKFile type="UnstructuredGrid"  version="0.1"  >
<UnstructuredGrid>
<Piece  NumberOfPoints="81" NumberOfCells="128">
<Points>
<DataArray  type="Float64"  NumberOfComponents="3"  format="ascii">0 0 0  0.275 0 0  0.55 0 0  0.8250000000000001 0 0  1.1 0 0  1.375 0 0  1.65 0 0  1.925 0 0  2.2 0 0  0 0.05125 0  0.275 0.05125 0  0.55 0.05125 0  0.8250000000000001 0.05125 0  1.1 0.05125 0  1.375 0.05125 0  1.65 0.05125 0  1.925 0.05125 0  2.2 0.05125 0  0 0.1025 0  0.275 0.1025 0  0.55 0.1025 0  0.8250000000000001 0.1025 0  1.1 0.1025 0  1.375 0.1025 0  1.65 0.1025 0  1.925 0.1025 0  2.2 0.1025 0  0 0.15375 0  0.275 0.15375 0  0.55 0.15375 0  0.8250000000000001 0.15375 0  1.1 0.15375 0  1.375 0.15375 0  1.65 0.15375 0  1.925 0.15375 0  2.2 0.15375 0  0 0.205 0  0.275 0.205 0  0.55 0.205 0  0.8250000000000001 0.205 0  1.1 0.205 0  1.375 0.205 0  1.65 0.205 0  1.925 0.205 0  2.2 0.205 0  0 0.25625 0  0.275 0.25625 0  0.55 0.25625 0  0.8250000000000001 0.25625 0  1.1 0.25625 0  1.375 0.25625 0  1.65 0.25625 0  1.925 0.25625 0  2.2 0.25625 0  0 0.3075 0  0.275 0.3075 0  0.55 0.3075 0  0.8250000000000001 0.3075 0  1.1 0.3075 0  1.375 0.3075 0  1.65 0.3075 0  1.925 0.3075 0  2.2 0.3075 0  0 0.35875 0  0.275 0.35875 0  0.55 0.35875 0  0.8250000000000001 0.35875 0  1.1 0.35875 0  1.375 0.35875 0  1.65 0.35875 0  1.925 0.35875 0  2.2 0.35875 0  0 0.41 0  0.275 0.41 0  0.55 0.41 0  0.8250000000000001 0.41 0  1.1 0.41 0  1.375 0.41 0  1.65 0.41 0  1.925 0.41 0  2.2 0.41 0  </DataArray>
</Points>
<Cells>
<DataArray  type="UInt32"  Name="connectivity"  format="ascii">0 1 9  1 9 10  1 2 11  1 10 11  2 3 11  3 11 12  3 4 13  3 12 13  4 5 13  5 13 14  5 6 15  5 14 15  6 7 15  7 15 16  7 8 17  7 16 17  9 10 19  9 18 19  10 11 19  11 19 20  11 12 21  11 20 21  12 13 21  13 21 22  13 14 23  13 22 23  14 15 23  15 23 24  15 16 25  15 24 25  16 17 25  17 25 26  18 19 27  19 27 28  19 20 29  19 28 29  20 21 29  21 29 30  21 22 31  21 30 31  22 23 31  23 31 32  23 24 33  23 32 33  24 25 33  25 33 34  25 26 35  25 34 35  27 28 37  27 36 37  28 29 37  29 37 38  29 30 39  29 38 39  30 31 39  31 39 40  31 32 41  31 40 41  32 33 41  33 41 42  33 34 43  33 42 43  34 35 43  35 43 44  36 37 45  37 45 46  37 38 47  37 46 47  38 39 47  39 47 48  39 40 49  39 48 49  40 41 49  41 49 50  41 42 51  41 50 51  42 43 51  43 51 52  43 44 53  43 52 53  45 46 55  45 54 55  46 47 55  47 55 56  47 48 57  47 56 57  48 49 57  49 57 58  49 50 59  49 58 59  50 51 59  51 59 60  51 52 61  51 60 61  52 53 61  53 61 62  54 55 63  55 63 64  55 56 65  55 64 65  56 57 65  57 65 66  57 58 67  57 66 67  58 59 67  59 67 68  59 60 69  59 68 69  60 61 69  61 69 70  61 62 71  61 70 71  63 64 73  63 72 73  64 65 73  65 73 74  65 66 75  65 74 75  66 67 75  67 75 76  67 68 77  67 76 77  68 69 77  69 77 78  69 70 79  69 78 79  70 71 79  71 79 80  </DataArray>
<DataArray  type="UInt32"  Name="offsets"  format="ascii">3 6 9 12 15 18 21 24 27 30 33 36 39 42 45 48 51 54 57 60 63 66 69 72 75 78 81 84 87 90 93 96 99 102 105 108 111 114 117 120 123 126 129 132 135 138 141 144 147 150 153 156 159 162 165 168 171 174 177 180 183 186 189 192 195 198 201 204 207 210 213 216 219 222 225 228 231 234 237 240 243 246 249 252 255 258 261 264 267 270 273 276 279 282 285 288 291 294 297 300 303 306 309 312 315 318 321 324 327 330 333 336 339 342 345 348 351 354 357 360 363 366 369 372 375 378 381 384 </DataArray>
<DataArray  type="UInt8"  Name="types"  format="ascii">5 5 5 5 5 5 5 5 5 5 5 5 5 5 5 5 5 5 5 5 5 5 5 5 5 5 5 5 5 5 5 5 5 5 5 5 5 5 5 5 5 5 5 5 5 5 5 5 5 5 5 5 5 5 5 5 5 5 5 5 5 5 5 5 5 5 5 5 5 5 5 5 5 5 5 5 5 5 5 5 5 5 5 5 5 5 5 5 5 5 5 5 5 5 5 5 5 5 5 5 5 5 5 5 5 5 5 5 5 5 5 5 5 5 5 5 5 5 5 5 5 5 5 5 5 5 5 5 </DataArray>
</Cells>
<PointData  Vectors="f_16"> 
<DataArray  type="Float64"  Name="f_16"  NumberOfComponents="3" format="ascii">2.0495417348475037e-05 -4.8940641059289837e-09 0.0000000000000000e+00  -1.2005290544963191e-06 2.3515363567896993e-10 0.0000000000000000e+00  1.0381370149171453e-06 -2.8196355829822790e-10 0.0000000000000000e+00  -8.2901138125259255e-06 -1.0106908680937936e-09 0.0000000000000000e+00  -2.9263038165611273e-06 -1.6246684051760225e-09 0.0000000000000000e+00  -4.7717962200947771e-06 4.4184395109524559e-09 0.0000000000000000e+00  -5.2083221966704243e-06 5.0901005155921099e-09 0.0000000000000000e+00  -5.8899585436160153e-06 7.2732919654653703e-09 0.0000000000000000e+00  -1.1511685811039781e-06 5.5327200360752282e-09 0.0000000000000000e+00  6.5624702685991065e-01 -1.6324609245983251e-09 0.0000000000000000e+00  6.5702199642950576e-01 -1.1784139197344938e-04 0.0000000000000000e+00  6.5836736757953540e-01 1.2480773400822188e-04 0.0000000000000000e+00  6.5837025995782128e-01 -6.9563773435122206e-05 0.0000000000000000e+00  6.5871691832861323e-01 1.8603221406374494e-05 0.0000000000000000e+00  6.5869848037544776e-01 -1.2629345419960486e-05 0.0000000000000000e+00  6.5853222824806978e-01 -5.3527412739114104e-05 0.0000000000000000e+00  6.6020009891189479e-01 -4.3676796392256537e-04 0.0000000000000000e+00  6.7063311669464953e-01 -2.6397045994361276e-03 0.0000000000000000e+00  1.1249841112932841e+00 2.5426095509567323e-10 0.0000000000000000e+00  1.1255135162895173e+00 -6.3528266671480850e-04 0.0000000000000000e+00  1.1239897189399914e+00 -2.2674004567366343e-04 0.0000000000000000e+00  1.1267937048821859e+00 -1.0528490373942328e-04 0.0000000000000000e+00  1.1255743910802067e+00 1.3478949060845364e-04 0.0000000000000000e+00  1.1252327298328733e+00 1.4830968114361965e-04 0.0000000000000000e+00  1.1251504934642793e+00 -2.0431725060423408e-05 0.0000000000000000e+00  1.1251314943419588e+00 -4.0418885802113265e-04 0.0000000000000000e+00  1.1247016970862487e+00 -3.4813645291962626e-03 0.0000000000000000e+00  1.4062394909115465e+00 -6.1808646288379205e-10 0.0000000000000000e+00  1.4055406047348766e+00 -2.1060511984548805e-04 0.0000000000000000e+00  1.4071833078953633e+00 -1.6561605933649952e-04 0.0000000000000000e+00  1.4048550603381587e+00 -7.2114437493994856e-05 0.0000000000000000e+00  1.4066585856480867e+00 -3.2954200231452434e-05 0.0000000000000000e+00  1.4059355870101662e+00 -2.1532641290780082e-05 0.0000000000000000e+00  1.4060329505457654e+00 1.2567600016737441e-04 0.0000000000000000e+00  1.4048725340569972e+00 -3.6531419751560895e-04 0.0000000000000000e+00  1.3976100635189677e+00 -2.4128729683605523e-03 0.0000000000000000e+00  1.4999818543148840e+00 6.9204018622349269e-10 0.0000000000000000e+00  1.5001312963098867e+00 -1.5650749838500138e-04 0.0000000000000000e+00  1.4992332148217344e+00 -1.7881584234097836e-04 0.0000000000000000e+00  1.4996999057703135e+00 -1.1476274198294261e-04 0.0000000000000000e+00  1.4965963423766759e+00 -4.4373195860947276e-05 0.0000000000000000e+00  1.4993013976517722e+00 1.1087935739415672e-04 0.0000000000000000e+00  1.4989913417311338e+00 2.9523592029202003e-04 0.0000000000000000e+00  1.4972031921116540e+00 4.6078068868388964e-04 0.0000000000000000e+00  1.4878689843101955e+00 2.6476040647307694e-04 0.0000000000000000e+00  1.4062361269181429e+00 1.1493384992444462e-09 0.0000000000000000e+00  1.4054477155723482e+00 -6.1029748649770247e-06 0.0000000000000000e+00  1.4062777195843648e+00 -2.1491978098406845e-04 0.0000000000000000e+00  1.4051103358318602e+00 -1.8014845970904019e-04 0.0000000000000000e+00  1.4059905072578847e+00 -4.5979092148537371e-05 0.0000000000000000e+00  1.4036062111783174e+00 2.2318485112852142e-04 0.0000000000000000e+00  1.4070685605265123e+00 2.8293358441728423e-04 0.0000000000000000e+00  1.4046123437277525e+00 9.0080413846826155e-04 0.0000000000000000e+00  1.3972129931689150e+00 2.6914044710063196e-03 0.0000000000000000e+00  1.1249860229651412e+00 9.7754797119819558e-10 0.0000000000000000e+00  1.1252408438877946e+00 2.0645648225800679e-04 0.0000000000000000e+00  1.1250116231031215e+00 1.6507713776553881e-06 0.0000000000000000e+00  1.1248543995773972e+00 -8.7374847593577553e-05 0.0000000000000000e+00  1.1241065730699225e+00 -1.2335922950356299e-04 0.0000000000000000e+00  1.1249583991615999e+00 5.5417744477100500e-05 0.0000000000000000e+00  1.1228360053389881e+00 3.9723717515141414e-04 0.0000000000000000e+00  1.1259259854907009e+00 1.0353745750713835e-03 0.0000000000000000e+00  1.1247350926801705e+00 4.0088709827480829e-03 0.0000000000000000e+00  6.5624144773021842e-01 1.0851902778163725e-09 0.0000000000000000e+00  6.5577579037242550e-01 1.2748395875051728e-05 0.0000000000000000e+00  6.5653883773156596e-01 -1.9585393733010764e-04 0.0000000000000000e+00  6.5640240505000957e-01 1.9827458485405313e-05 0.0000000000000000e+00  6.5670104467644774e-01 -5.0931408061801814e-05 0.0000000000000000e+00  6.5599787991072156e-01 9.5558331895203007e-05 0.0000000000000000e+00  6.5838039298778750e-01 2.7933108961800763e-04 0.0000000000000000e+00  6.5872295175078599e-01 6.2520058919315012e-04 0.0000000000000000e+00  6.7286525752089543e-01 3.0929868126094236e-03 0.0000000000000000e+00  -7.0224846754791018e-06 -4.2829514778640948e-10 0.0000000000000000e+00  -7.2265514788288488e-06 -9.3007108552955756e-10 0.0000000000000000e+00  -4.6106608700480406e-06 -1.0639119072535932e-09 0.0000000000000000e+00  -6.2758932302115081e-06 2.2276896380282337e-09 0.0000000000000000e+00  -2.2648132501638588e-06 2.8412671500439262e-09 0.0000000000000000e+00  -6.9300768490701785e-06 -6.6735478177173531e-09 0.0000000000000000e+00  -7.0827391655805060e-06 -2.1341084769012252e-10 0.0000000000000000e+00  5.3241894723200560e-07 6.8577665593611618e-09 0.0000000000000000e+00  -1.0192618771755139e-05 -2.0545277588303913e-08 0.0000000000000000e+00  </DataArray> 
</PointData> 
</Piece>
</UnstructuredGrid>
</VTKFile>