<?xml version="1.0"?>
<VTKFile type="UnstructuredGrid"  version="0.1"  >
<UnstructuredGrid>
<Piece  NumberOfPoints="81" NumberOfCells="128">
<Points>
<DataArray  type="Float64"  NumberOfComponents="3"  format="ascii">0 0 0  0.275 0 0  0.55 0 0  0.8250000000000001 0 0  1.1 0 0  1.375 0 0  1.65 0 0  1.925 0 0  2.2 0 0  0 0.05125 0  0.275 0.05125 0  0.55 0.05125 0  0.8250000000000001 0.05125 0  1.1 0.05125 0  1.375 0.05125 0  1.65 0.05125 0  1.925 0.05125 0  2.2 0.05125 0  0 0.1025 0  0.275 0.1025 0  0.55 0.1025 0  0.8250000000000001 0.1025 0  1.1 0.1025 0  1.375 0.1025 0  1.65 0.1025 0  1.925 0.1025 0  2.2 0.1025 0  0 0.15375 0  0.275 0.15375 0  0.55 0.15375 0  0.8250000000000001 0.15375 0  1.1 0.15375 0  1.375 0.15375 0  1.65 0.15375 0  1.925 0.15375 0  2.2 0.15375 0  0 0.205 0  0.275 0.205 0  0.55 0.205 0  0.8250000000000001 0.205 0  1.1 0.205 0  1.375 0.205 0  1.65 0.205 0  1.925 0.205 0  2.2 0.205 0  0 0.25625 0  0.275 0.25625 0  0.55 0.25625 0  0.8250000000000001 0.25625 0  1.1 0.25625 0  1.375 0.25625 0  1.65 0.25625 0  1.925 0.25625 0  2.2 0.25625 0  0 0.3075 0  0.275 0.3075 0  0.55 0.3075 0  0.8250000000000001 0.3075 0  1.1 0.3075 0  1.375 0.3075 0  1.65 0.3075 0  1.925 0.3075 0  2.2 0.3075 0  0 0.35875 0  0.275 0.35875 0  0.55 0.35875 0  0.8250000000000001 0.35875 0  1.1 0.35875 0  1.375 0.35875 0  1.65 0.35875 0  1.925 0.35875 0  2.2 0.35875 0  0 0.41 0  0.275 0.41 0  0.55 0.41 0  0.8250000000000001 0.41 0  1.1 0.41 0  1.375 0.41 0  1.65 0.41 0  1.925 0.41 0  2.2 0.41 0  </DataArray>
</Points>
<Cells>
<DataArray  type="UInt32"  Name="connectivity"  format="ascii">0 1 9  1 9 10  1 2 11  1 10 11  2 3 11  3 11 12  3 4 13  3 12 13  4 5 13  5 13 14  5 6 15  5 14 15  6 7 15  7 15 16  7 8 17  7 16 17  9 10 19  9 18 19  10 11 19  11 19 20  11 12 21  11 20 21  12 13 21  13 21 22  13 14 23  13 22 23  14 15 23  15 23 24  15 16 25  15 24 25  16 17 25  17 25 26  18 19 27  19 27 28  19 20 29  19 28 29  20 21 29  21 29 30  21 22 31  21 30 31  22 23 31  23 31 32  23 24 33  23 32 33  24 25 33  25 33 34  25 26 35  25 34 35  27 28 37  27 36 37  28 29 37  29 37 38  29 30 39  29 38 39  30 31 39  31 39 40  31 32 41  31 40 41  32 33 41  33 41 42  33 34 43  33 42 43  34 35 43  35 43 44  36 37 45  37 45 46  37 38 47  37 46 47  38 39 47  39 47 48  39 40 49  39 48 49  40 41 49  41 49 50  41 42 51  41 50 51  42 43 51  43 51 52  43 44 53  43 52 53  45 46 55  45 54 55  46 47 55  47 55 56  47 48 57  47 56 57  48 49 57  49 57 58  49 50 59  49 58 59  50 51 59  51 59 60  51 52 61  51 60 61  52 53 61  53 61 62  54 55 63  55 63 64  55 56 65  55 64 65  56 57 65  57 65 66  57 58 67  57 66 67  58 59 67  59 67 68  59 60 69  59 68 69  60 61 69  61 69 70  61 62 71  61 70 71  63 64 73  63 72 73  64 65 73  65 73 74  65 66 75  65 74 75  66 67 75  67 75 76  67 68 77  67 76 77  68 69 77  69 77 78  69 70 79  69 78 79  70 71 79  71 79 80  </DataArray>
<DataArray  type="UInt32"  Name="offsets"  format="ascii">3 6 9 12 15 18 21 24 27 30 33 36 39 42 45 48 51 54 57 60 63 66 69 72 75 78 81 84 87 90 93 96 99 102 105 108 111 114 117 120 123 126 129 132 135 138 141 144 147 150 153 156 159 162 165 168 171 174 177 180 183 186 189 192 195 198 201 204 207 210 213 216 219 222 225 228 231 234 237 240 243 246 249 252 255 258 261 264 267 270 273 276 279 282 285 288 291 294 297 300 303 306 309 312 315 318 321 324 327 330 333 336 339 342 345 348 351 354 357 360 363 366 369 372 375 378 381 384 </DataArray>
<DataArray  type="UInt8"  Name="types"  format="ascii">5 5 5 5 5 5 5 5 5 5 5 5 5 5 5 5 5 5 5 5 5 5 5 5 5 5 5 5 5 5 5 5 5 5 5 5 5 5 5 5 5 5 5 5 5 5 5 5 5 5 5 5 5 5 5 5 5 5 5 5 5 5 5 5 5 5 5 5 5 5 5 5 5 5 5 5 5 5 5 5 5 5 5 5 5 5 5 5 5 5 5 5 5 5 5 5 5 5 5 5 5 5 5 5 5 5 5 5 5 5 5 5 5 5 5 5 5 5 5 5 5 5 5 5 5 5 5 5 </DataArray>
</Cells>
<PointData  Vectors="f_16"> 
<DataArray  type="Float64"  Name="f_16"  NumberOfComponents="3" format="ascii">2.0489582285087406e-05 -4.3776747902206433e-09 0.0000000000000000e+00  -1.2011963640354898e-06 -3.8579723882623950e-11 0.0000000000000000e+00  1.0439557782581379e-06 -9.8041810758267930e-10 0.0000000000000000e+00  -8.2929045920080921e-06 1.0286091684545676e-09 0.0000000000000000e+00  -2.9407651884468753e-06 -3.5943478707832453e-11 0.0000000000000000e+00  -4.7733300882335028e-06 -8.5751680517949487e-10 0.0000000000000000e+00  -5.1843567602589529e-06 -3.2282929464019817e-10 0.0000000000000000e+00  -5.9226564227378959e-06 -4.0055655891844433e-10 0.0000000000000000e+00  -1.2401078378074377e-06 1.9860931731143323e-10 0.0000000000000000e+00  6.5624702209972607e-01 -2.5876319295296240e-10 0.0000000000000000e+00  6.5712366601233341e-01 -1.2744042456291693e-04 0.0000000000000000e+00  6.5836988770576022e-01 1.3426252560568390e-04 0.0000000000000000e+00  6.5820399926173256e-01 -3.3170169695513679e-05 0.0000000000000000e+00  6.5876427078077637e-01 -2.0915552551255444e-05 0.0000000000000000e+00  6.5862591474236742e-01 3.8307668150534233e-05 0.0000000000000000e+00  6.5834185116866828e-01 2.0591503965451557e-06 0.0000000000000000e+00  6.5749748310407363e-01 2.8746788302761079e-05 0.0000000000000000e+00  6.5750091564972912e-01 -4.3938680699608339e-05 0.0000000000000000e+00  1.1249841008292154e+00 9.0281093422750175e-10 0.0000000000000000e+00  1.1255474937956520e+00 -6.1863625760378909e-04 0.0000000000000000e+00  1.1238724182286601e+00 -1.5436109013392880e-04 0.0000000000000000e+00  1.1264594136655441e+00 -1.3771295490219634e-04 0.0000000000000000e+00  1.1256177936799436e+00 1.1681676874187287e-05 0.0000000000000000e+00  1.1252526647352847e+00 1.9035236883970758e-04 0.0000000000000000e+00  1.1251833815184862e+00 1.4785303866981354e-04 0.0000000000000000e+00  1.1246366867900282e+00 2.1083272693574236e-04 0.0000000000000000e+00  1.1241529878544867e+00 1.4616305963328197e-04 0.0000000000000000e+00  1.4062394802864966e+00 -1.8127293592035212e-10 0.0000000000000000e+00  1.4055729362606095e+00 -1.6010442594131558e-04 0.0000000000000000e+00  1.4068292823901347e+00 -1.4705095399686056e-04 0.0000000000000000e+00  1.4047488352139113e+00 -1.8858846351480778e-04 0.0000000000000000e+00  1.4072300847825185e+00 -1.7376773562355731e-04 0.0000000000000000e+00  1.4060920102142169e+00 1.0508791077491423e-04 0.0000000000000000e+00  1.4057555635335186e+00 1.5491580297100481e-04 0.0000000000000000e+00  1.4056735717259290e+00 2.1264253582943117e-04 0.0000000000000000e+00  1.4055572186099061e+00 1.3534373842467645e-04 0.0000000000000000e+00  1.4999818418290531e+00 8.8198355000889197e-10 0.0000000000000000e+00  1.5000496480433050e+00 -1.5728451057334033e-04 0.0000000000000000e+00  1.4988856099161132e+00 -1.8351171837454255e-04 0.0000000000000000e+00  1.4996270449701399e+00 -1.2660828854576240e-04 0.0000000000000000e+00  1.4973686682129395e+00 -6.5273673213091783e-05 0.0000000000000000e+00  1.4992833358222368e+00 8.5187568757477824e-05 0.0000000000000000e+00  1.4985207185426805e+00 2.8477632811100005e-04 0.0000000000000000e+00  1.4981576466012119e+00 4.6164603664061087e-04 0.0000000000000000e+00  1.4981723517858483e+00 3.4663675237888136e-04 0.0000000000000000e+00  1.4062361155157275e+00 7.3757396729747776e-10 0.0000000000000000e+00  1.4054806855918589e+00 -5.8585984817262871e-05 0.0000000000000000e+00  1.4059267980281813e+00 -2.3612575762515839e-04 0.0000000000000000e+00  1.4049771461536105e+00 -8.5986931765930173e-05 0.0000000000000000e+00  1.4064941683859480e+00 5.5897828412792530e-05 0.0000000000000000e+00  1.4036624140599039e+00 5.1194317540865223e-05 0.0000000000000000e+00  1.4066432450120758e+00 2.1436645697029327e-04 0.0000000000000000e+00  1.4052085299354284e+00 3.5658993911274014e-04 0.0000000000000000e+00  1.4050603698248556e+00 3.5986038439105294e-04 0.0000000000000000e+00  1.1249860141834949e+00 4.0736115212460732e-11 0.0000000000000000e+00  1.1252784445295818e+00 1.8921047216175825e-04 0.0000000000000000e+00  1.1248799237836851e+00 -7.5356904382963959e-05 0.0000000000000000e+00  1.1244836779274572e+00 -6.8016376523233972e-05 0.0000000000000000e+00  1.1240443903865520e+00 -2.4945361214226064e-05 0.0000000000000000e+00  1.1247814836658181e+00 -1.8526737571313638e-05 0.0000000000000000e+00  1.1225671256617580e+00 2.1442510369717606e-04 0.0000000000000000e+00  1.1250578441444623e+00 4.3931456603040316e-04 0.0000000000000000e+00  1.1240693974541534e+00 5.1975890341568009e-04 0.0000000000000000e+00  6.5624143947456604e-01 -3.4890957346187038e-10 0.0000000000000000e+00  6.5587860307583856e-01 2.1682409292918544e-05 0.0000000000000000e+00  6.5653612132872297e-01 -2.0520252846886107e-04 0.0000000000000000e+00  6.5618999842447356e-01 -2.0109757388388826e-05 0.0000000000000000e+00  6.5664003499067325e-01 -1.9476132877971706e-05 0.0000000000000000e+00  6.5570722462184561e-01 3.6423994698012488e-05 0.0000000000000000e+00  6.5787407770734840e-01 2.2048006477892585e-04 0.0000000000000000e+00  6.5574281162608539e-01 1.7475996688369369e-04 0.0000000000000000e+00  6.5984006754643598e-01 5.7418409440369877e-04 0.0000000000000000e+00  -7.0285063078782976e-06 -8.7632153091005431e-10 0.0000000000000000e+00  -7.2264697784875611e-06 -4.8569489133341119e-10 0.0000000000000000e+00  -4.6027311439372123e-06 -2.2785000164942701e-10 0.0000000000000000e+00  -6.2743687682688989e-06 7.6808518342934391e-10 0.0000000000000000e+00  -2.2758848397752874e-06 1.1635359355935913e-09 0.0000000000000000e+00  -6.9279323469716023e-06 -1.3132059968902890e-09 0.0000000000000000e+00  -7.0864089293291614e-06 -5.0058249151623382e-10 0.0000000000000000e+00  4.7792785517474337e-07 2.6990621088214984e-10 0.0000000000000000e+00  -1.0284631882541715e-05 -4.5569132556583674e-09 0.0000000000000000e+00  </DataArray> 
</PointData> 
</Piece>
</UnstructuredGrid>
</VTKFile>