<?xml version="1.0"?>
<VTKFile type="UnstructuredGrid"  version="0.1"  >
<UnstructuredGrid>
<Piece  NumberOfPoints="81" NumberOfCells="128">
<Points>
<DataArray  type="Float64"  NumberOfComponents="3"  format="ascii">0 0 0  0.275 0 0  0.55 0 0  0.8250000000000001 0 0  1.1 0 0  1.375 0 0  1.65 0 0  1.925 0 0  2.2 0 0  0 0.05125 0  0.275 0.05125 0  0.55 0.05125 0  0.8250000000000001 0.05125 0  1.1 0.05125 0  1.375 0.05125 0  1.65 0.05125 0  1.925 0.05125 0  2.2 0.05125 0  0 0.1025 0  0.275 0.1025 0  0.55 0.1025 0  0.8250000000000001 0.1025 0  1.1 0.1025 0  1.375 0.1025 0  1.65 0.1025 0  1.925 0.1025 0  2.2 0.1025 0  0 0.15375 0  0.275 0.15375 0  0.55 0.15375 0  0.8250000000000001 0.15375 0  1.1 0.15375 0  1.375 0.15375 0  1.65 0.15375 0  1.925 0.15375 0  2.2 0.15375 0  0 0.205 0  0.275 0.205 0  0.55 0.205 0  0.8250000000000001 0.205 0  1.1 0.205 0  1.375 0.205 0  1.65 0.205 0  1.925 0.205 0  2.2 0.205 0  0 0.25625 0  0.275 0.25625 0  0.55 0.25625 0  0.8250000000000001 0.25625 0  1.1 0.25625 0  1.375 0.25625 0  1.65 0.25625 0  1.925 0.25625 0  2.2 0.25625 0  0 0.3075 0  0.275 0.3075 0  0.55 0.3075 0  0.8250000000000001 0.3075 0  1.1 0.3075 0  1.375 0.3075 0  1.65 0.3075 0  1.925 0.3075 0  2.2 0.3075 0  0 0.35875 0  0.275 0.35875 0  0.55 0.35875 0  0.8250000000000001 0.35875 0  1.1 0.35875 0  1.375 0.35875 0  1.65 0.35875 0  1.925 0.35875 0  2.2 0.35875 0  0 0.41 0  0.275 0.41 0  0.55 0.41 0  0.8250000000000001 0.41 0  1.1 0.41 0  1.375 0.41 0  1.65 0.41 0  1.925 0.41 0  2.2 0.41 0  </DataArray>
</Points>
<Cells>
<DataArray  type="UInt32"  Name="connectivity"  format="ascii">0 1 9  1 9 10  1 2 11  1 10 11  2 3 11  3 11 12  3 4 13  3 12 13  4 5 13  5 13 14  5 6 15  5 14 15  6 7 15  7 15 16  7 8 17  7 16 17  9 10 19  9 18 19  10 11 19  11 19 20  11 12 21  11 20 21  12 13 21  13 21 22  13 14 23  13 22 23  14 15 23  15 23 24  15 16 25  15 24 25  16 17 25  17 25 26  18 19 27  19 27 28  19 20 29  19 28 29  20 21 29  21 29 30  21 22 31  21 30 31  22 23 31  23 31 32  23 24 33  23 32 33  24 25 33  25 33 34  25 26 35  25 34 35  27 28 37  27 36 37  28 29 37  29 37 38  29 30 39  29 38 39  30 31 39  31 39 40  31 32 41  31 40 41  32 33 41  33 41 42  33 34 43  33 42 43  34 35 43  35 43 44  36 37 45  37 45 46  37 38 47  37 46 47  38 39 47  39 47 48  39 40 49  39 48 49  40 41 49  41 49 50  41 42 51  41 50 51  42 43 51  43 51 52  43 44 53  43 52 53  45 46 55  45 54 55  46 47 55  47 55 56  47 48 57  47 56 57  48 49 57  49 57 58  49 50 59  49 58 59  50 51 59  51 59 60  51 52 61  51 60 61  52 53 61  53 61 62  54 55 63  55 63 64  55 56 65  55 64 65  56 57 65  57 65 66  57 58 67  57 66 67  58 59 67  59 67 68  59 60 69  59 68 69  60 61 69  61 69 70  61 62 71  61 70 71  63 64 73  63 72 73  64 65 73  65 73 74  65 66 75  65 74 75  66 67 75  67 75 76  67 68 77  67 76 77  68 69 77  69 77 78  69 70 79  69 78 79  70 71 79  71 79 80  </DataArray>
<DataArray  type="UInt32"  Name="offsets"  format="ascii">3 6 9 12 15 18 21 24 27 30 33 36 39 42 45 48 51 54 57 60 63 66 69 72 75 78 81 84 87 90 93 96 99 102 105 108 111 114 117 120 123 126 129 132 135 138 141 144 147 150 153 156 159 162 165 168 171 174 177 180 183 186 189 192 195 198 201 204 207 210 213 216 219 222 225 228 231 234 237 240 243 246 249 252 255 258 261 264 267 270 273 276 279 282 285 288 291 294 297 300 303 306 309 312 315 318 321 324 327 330 333 336 339 342 345 348 351 354 357 360 363 366 369 372 375 378 381 384 </DataArray>
<DataArray  type="UInt8"  Name="types"  format="ascii">5 5 5 5 5 5 5 5 5 5 5 5 5 5 5 5 5 5 5 5 5 5 5 5 5 5 5 5 5 5 5 5 5 5 5 5 5 5 5 5 5 5 5 5 5 5 5 5 5 5 5 5 5 5 5 5 5 5 5 5 5 5 5 5 5 5 5 5 5 5 5 5 5 5 5 5 5 5 5 5 5 5 5 5 5 5 5 5 5 5 5 5 5 5 5 5 5 5 5 5 5 5 5 5 5 5 5 5 5 5 5 5 5 5 5 5 5 5 5 5 5 5 5 5 5 5 5 5 </DataArray>
</Cells>
<PointData  Vectors="f_16"> 
<DataArray  type="Float64"  Name="f_16"  NumberOfComponents="3" format="ascii">2.1594507663280205e-05 -1.1889431945708611e-07 0.0000000000000000e+00  -9.0372784616577221e-07 -3.1839718635823418e-08 0.0000000000000000e+00  1.4473324049538261e-06 -8.6509527053411188e-08 0.0000000000000000e+00  -8.7235265583894331e-06 6.6751869406667601e-08 0.0000000000000000e+00  -3.8472410540994885e-06 1.7868717701278771e-07 0.0000000000000000e+00  -5.6398390674218607e-06 5.0164014888563796e-08 0.0000000000000000e+00  -7.9155240240837281e-06 3.9973492109159400e-08 0.0000000000000000e+00  -6.7539089801675217e-06 -1.3224181024243938e-07 0.0000000000000000e+00  -3.3723516337375792e-06 -1.5893539889861804e-08 0.0000000000000000e+00  6.5624737840155800e-01 -4.3863758069753888e-08 0.0000000000000000e+00  6.6072909629674925e-01 -5.1152499218826901e-04 0.0000000000000000e+00  6.8000782165696716e-01 -8.2427416706854530e-03 0.0000000000000000e+00  7.5011033624847034e-01 -1.6343436907238162e-02 0.0000000000000000e+00  8.8279045393174294e-01 -9.7476814376383763e-03 0.0000000000000000e+00  9.4373406979539598e-01 -3.1246573694707238e-03 0.0000000000000000e+00  9.2177075192101876e-01 4.9272668442696807e-03 0.0000000000000000e+00  9.3588817398540558e-01 -1.5963026471103078e-04 0.0000000000000000e+00  9.1734790336041949e-01 3.2380770149488232e-03 0.0000000000000000e+00  1.1249846381715274e+00 8.1134093796868606e-09 0.0000000000000000e+00  1.1255933418847397e+00 -1.8692115713224984e-03 0.0000000000000000e+00  1.1295526960737854e+00 -8.1790894799473827e-03 0.0000000000000000e+00  1.1063500156236437e+00 -2.1261983155113726e-02 0.0000000000000000e+00  1.1062974551146842e+00 -4.0053593380212277e-02 0.0000000000000000e+00  1.1738306692970613e+00 3.5995292165074479e-04 0.0000000000000000e+00  1.1847571978449676e+00 8.5597046256049858e-03 0.0000000000000000e+00  1.1746338955361144e+00 -9.9495256361217515e-03 0.0000000000000000e+00  1.1729533033498536e+00 7.1007778011722361e-03 0.0000000000000000e+00  1.4062400808202027e+00 -1.0761268559774729e-08 0.0000000000000000e+00  1.4093435310873996e+00 -2.5062421984082301e-03 0.0000000000000000e+00  1.4129940363134501e+00 1.6791094965277356e-04 0.0000000000000000e+00  1.3430409241236378e+00 -1.1221366097727503e-02 0.0000000000000000e+00  1.2403338375810802e+00 -3.6034605609092600e-02 0.0000000000000000e+00  1.1864536255769194e+00 -2.0128910795311657e-03 0.0000000000000000e+00  1.2151748880613633e+00 6.4461810536217594e-03 0.0000000000000000e+00  1.1915792769363966e+00 -3.1354663190333409e-03 0.0000000000000000e+00  1.1972577384200729e+00 8.9550071169245335e-03 0.0000000000000000e+00  1.4999823933493042e+00 -5.4356239154505957e-08 0.0000000000000000e+00  1.5096933787409546e+00 -1.7846958269369351e-04 0.0000000000000000e+00  1.5014735545846709e+00 -7.2737552428534427e-05 0.0000000000000000e+00  1.4298165605047179e+00 6.4272562425987114e-06 0.0000000000000000e+00  1.2969815317379880e+00 -6.2837269512675437e-05 0.0000000000000000e+00  1.1848243225818853e+00 9.7203913363188370e-05 0.0000000000000000e+00  1.2153211261542054e+00 1.1978083359101374e-04 0.0000000000000000e+00  1.1907275316343229e+00 2.1343423119271084e-04 0.0000000000000000e+00  1.1983450183357292e+00 3.1923004782010880e-05 0.0000000000000000e+00  1.4062369610630290e+00 -4.5139097992383132e-08 0.0000000000000000e+00  1.4092246075022365e+00 2.3532513590062308e-03 0.0000000000000000e+00  1.4124155463782657e+00 -2.6184282322606016e-04 0.0000000000000000e+00  1.3436033249883939e+00 1.1165094722597493e-02 0.0000000000000000e+00  1.2397315555199342e+00 3.5933301041710275e-02 0.0000000000000000e+00  1.1842936004506728e+00 2.0899646184502933e-03 0.0000000000000000e+00  1.2164850535192562e+00 -6.2816584763492845e-03 0.0000000000000000e+00  1.1912011291946631e+00 3.3393320275672566e-03 0.0000000000000000e+00  1.1966771651053569e+00 -9.1337097765642871e-03 0.0000000000000000e+00  1.1249863421826098e+00 -3.9568633393738548e-08 0.0000000000000000e+00  1.1252476525366719e+00 1.4047407338709619e-03 0.0000000000000000e+00  1.1308338477002444e+00 8.1302791371439132e-03 0.0000000000000000e+00  1.1052940874297665e+00 2.1247657405490609e-02 0.0000000000000000e+00  1.1058375522003479e+00 4.0067757205511416e-02 0.0000000000000000e+00  1.1741516212598200e+00 -3.2053525641452519e-04 0.0000000000000000e+00  1.1827960869700234e+00 -8.3897323028244240e-03 0.0000000000000000e+00  1.1754080257931849e+00 1.0220731855181570e-02 0.0000000000000000e+00  1.1723035583875574e+00 -6.9426941878523857e-03 0.0000000000000000e+00  6.5624199666411254e-01 3.2897923846377661e-08 0.0000000000000000e+00  6.5936561094202550e-01 3.7133270470269105e-04 0.0000000000000000e+00  6.7855146865908944e-01 8.2685614639569274e-03 0.0000000000000000e+00  7.4906531617096506e-01 1.6352407088753813e-02 0.0000000000000000e+00  8.8213160264396673e-01 9.6814319254934934e-03 0.0000000000000000e+00  9.4209500634560439e-01 3.1235115151714028e-03 0.0000000000000000e+00  9.2185959609546320e-01 -4.7770016601560673e-03 0.0000000000000000e+00  9.3375521417929286e-01 1.9638531201098539e-04 0.0000000000000000e+00  9.1822306365941364e-01 -2.9966032667578545e-03 0.0000000000000000e+00  -6.4173316996118935e-06 6.7279089927836153e-08 0.0000000000000000e+00  -6.9488938374454310e-06 7.9878741720505398e-10 0.0000000000000000e+00  -4.4184652239766509e-06 9.3014693844622848e-08 0.0000000000000000e+00  -5.8580806354128227e-06 -4.0789202432022503e-09 0.0000000000000000e+00  -2.8671385940028148e-06 -2.7077647161761577e-07 0.0000000000000000e+00  -7.7050854679454921e-06 -1.7864117602917276e-07 0.0000000000000000e+00  -8.9427269366762883e-06 -1.8011497060079120e-07 0.0000000000000000e+00  1.5950555201049660e-06 1.1902798509216621e-07 0.0000000000000000e+00  -1.0644899561589499e-05 4.3586296788267521e-08 0.0000000000000000e+00  </DataArray> 
</PointData> 
</Piece>
</UnstructuredGrid>
</VTKFile>