<?xml version="1.0"?>
<VTKFile type="UnstructuredGrid"  version="0.1"  >
<UnstructuredGrid>
<Piece  NumberOfPoints="81" NumberOfCells="128">
<Points>
<DataArray  type="Float64"  NumberOfComponents="3"  format="ascii">0 0 0  0.275 0 0  0.55 0 0  0.8250000000000001 0 0  1.1 0 0  1.375 0 0  1.65 0 0  1.925 0 0  2.2 0 0  0 0.05125 0  0.275 0.05125 0  0.55 0.05125 0  0.8250000000000001 0.05125 0  1.1 0.05125 0  1.375 0.05125 0  1.65 0.05125 0  1.925 0.05125 0  2.2 0.05125 0  0 0.1025 0  0.275 0.1025 0  0.55 0.1025 0  0.8250000000000001 0.1025 0  1.1 0.1025 0  1.375 0.1025 0  1.65 0.1025 0  1.925 0.1025 0  2.2 0.1025 0  0 0.15375 0  0.275 0.15375 0  0.55 0.15375 0  0.8250000000000001 0.15375 0  1.1 0.15375 0  1.375 0.15375 0  1.65 0.15375 0  1.925 0.15375 0  2.2 0.15375 0  0 0.205 0  0.275 0.205 0  0.55 0.205 0  0.8250000000000001 0.205 0  1.1 0.205 0  1.375 0.205 0  1.65 0.205 0  1.925 0.205 0  2.2 0.205 0  0 0.25625 0  0.275 0.25625 0  0.55 0.25625 0  0.8250000000000001 0.25625 0  1.1 0.25625 0  1.375 0.25625 0  1.65 0.25625 0  1.925 0.25625 0  2.2 0.25625 0  0 0.3075 0  0.275 0.3075 0  0.55 0.3075 0  0.8250000000000001 0.3075 0  1.1 0.3075 0  1.375 0.3075 0  1.65 0.3075 0  1.925 0.3075 0  2.2 0.3075 0  0 0.35875 0  0.275 0.35875 0  0.55 0.35875 0  0.8250000000000001 0.35875 0  1.1 0.35875 0  1.375 0.35875 0  1.65 0.35875 0  1.925 0.35875 0  2.2 0.35875 0  0 0.41 0  0.275 0.41 0  0.55 0.41 0  0.8250000000000001 0.41 0  1.1 0.41 0  1.375 0.41 0  1.65 0.41 0  1.925 0.41 0  2.2 0.41 0  </DataArray>
</Points>
<Cells>
<DataArray  type="UInt32"  Name="connectivity"  format="ascii">0 1 9  1 9 10  1 2 11  1 10 11  2 3 11  3 11 12  3 4 13  3 12 13  4 5 13  5 13 14  5 6 15  5 14 15  6 7 15  7 15 16  7 8 17  7 16 17  9 10 19  9 18 19  10 11 19  11 19 20  11 12 21  11 20 21  12 13 21  13 21 22  13 14 23  13 22 23  14 15 23  15 23 24  15 16 25  15 24 25  16 17 25  17 25 26  18 19 27  19 27 28  19 20 29  19 28 29  20 21 29  21 29 30  21 22 31  21 30 31  22 23 31  23 31 32  23 24 33  23 32 33  24 25 33  25 33 34  25 26 35  25 34 35  27 28 37  27 36 37  28 29 37  29 37 38  29 30 39  29 38 39  30 31 39  31 39 40  31 32 41  31 40 41  32 33 41  33 41 42  33 34 43  33 42 43  34 35 43  35 43 44  36 37 45  37 45 46  37 38 47  37 46 47  38 39 47  39 47 48  39 40 49  39 48 49  40 41 49  41 49 50  41 42 51  41 50 51  42 43 51  43 51 52  43 44 53  43 52 53  45 46 55  45 54 55  46 47 55  47 55 56  47 48 57  47 56 57  48 49 57  49 57 58  49 50 59  49 58 59  50 51 59  51 59 60  51 52 61  51 60 61  52 53 61  53 61 62  54 55 63  55 63 64  55 56 65  55 64 65  56 57 65  57 65 66  57 58 67  57 66 67  58 59 67  59 67 68  59 60 69  59 68 69  60 61 69  61 69 70  61 62 71  61 70 71  63 64 73  63 72 73  64 65 73  65 73 74  65 66 75  65 74 75  66 67 75  67 75 76  67 68 77  67 76 77  68 69 77  69 77 78  69 70 79  69 78 79  70 71 79  71 79 80  </DataArray>
<DataArray  type="UInt32"  Name="offsets"  format="ascii">3 6 9 12 15 18 21 24 27 30 33 36 39 42 45 48 51 54 57 60 63 66 69 72 75 78 81 84 87 90 93 96 99 102 105 108 111 114 117 120 123 126 129 132 135 138 141 144 147 150 153 156 159 162 165 168 171 174 177 180 183 186 189 192 195 198 201 204 207 210 213 216 219 222 225 228 231 234 237 240 243 246 249 252 255 258 261 264 267 270 273 276 279 282 285 288 291 294 297 300 303 306 309 312 315 318 321 324 327 330 333 336 339 342 345 348 351 354 357 360 363 366 369 372 375 378 381 384 </DataArray>
<DataArray  type="UInt8"  Name="types"  format="ascii">5 5 5 5 5 5 5 5 5 5 5 5 5 5 5 5 5 5 5 5 5 5 5 5 5 5 5 5 5 5 5 5 5 5 5 5 5 5 5 5 5 5 5 5 5 5 5 5 5 5 5 5 5 5 5 5 5 5 5 5 5 5 5 5 5 5 5 5 5 5 5 5 5 5 5 5 5 5 5 5 5 5 5 5 5 5 5 5 5 5 5 5 5 5 5 5 5 5 5 5 5 5 5 5 5 5 5 5 5 5 5 5 5 5 5 5 5 5 5 5 5 5 5 5 5 5 5 5 </DataArray>
</Cells>
<PointData  Vectors="f_16"> 
<DataArray  type="Float64"  Name="f_16"  NumberOfComponents="3" format="ascii">2.0490053311209700e-05 -4.4286976675975850e-09 0.0000000000000000e+00  -1.2012490673473085e-06 2.6729858346805237e-13 0.0000000000000000e+00  1.0432774188866960e-06 -9.1186064455974922e-10 0.0000000000000000e+00  -8.2927213906247293e-06 8.8097471219215828e-10 0.0000000000000000e+00  -2.9396580548565228e-06 -4.6774422313235278e-11 0.0000000000000000e+00  -4.7733579782769075e-06 -6.7819833486057966e-10 0.0000000000000000e+00  -5.1852760490197740e-06 -3.6028018594887498e-10 0.0000000000000000e+00  -5.9220926433281619e-06 -6.3988067943913587e-10 0.0000000000000000e+00  -1.2384171401555504e-06 1.3865471129175991e-10 0.0000000000000000e+00  6.5624702232153820e-01 -3.8558228371184520e-10 0.0000000000000000e+00  6.5712575327437195e-01 -1.2791923758482456e-04 0.0000000000000000e+00  6.5836376665215157e-01 1.3342753382970259e-04 0.0000000000000000e+00  6.5820814054570764e-01 -3.3600914666567974e-05 0.0000000000000000e+00  6.5875966210128001e-01 -1.8042012881557448e-05 0.0000000000000000e+00  6.5863049280678909e-01 3.6232458568331102e-05 0.0000000000000000e+00  6.5833492709155517e-01 8.3632380238986596e-07 0.0000000000000000e+00  6.5748918065698347e-01 2.9249760217070305e-05 0.0000000000000000e+00  6.5749047237269798e-01 -3.9675757634417194e-05 0.0000000000000000e+00  1.1249841014187814e+00 9.2144401311532261e-10 0.0000000000000000e+00  1.1255478665040435e+00 -6.2057674562649345e-04 0.0000000000000000e+00  1.1238782848760021e+00 -1.5797516398541176e-04 0.0000000000000000e+00  1.1264718248876244e+00 -1.3138816941089706e-04 0.0000000000000000e+00  1.1256099942023774e+00 1.5498757413085118e-05 0.0000000000000000e+00  1.1252410943475943e+00 1.7956230448572887e-04 0.0000000000000000e+00  1.1251854484699830e+00 1.4629484110782357e-04 0.0000000000000000e+00  1.1246378866347682e+00 2.1714839561508197e-04 0.0000000000000000e+00  1.1241371800713620e+00 1.4144379491817720e-04 0.0000000000000000e+00  1.4062394806078071e+00 -1.0645404338512007e-10 0.0000000000000000e+00  1.4055801587959624e+00 -1.6495644790746257e-04 0.0000000000000000e+00  1.4068623747182258e+00 -1.4767126506848974e-04 0.0000000000000000e+00  1.4047414647207930e+00 -1.7781331928620476e-04 0.0000000000000000e+00  1.4071750547723765e+00 -1.7384515893603515e-04 0.0000000000000000e+00  1.4060883630589160e+00 9.4363623498033413e-05 0.0000000000000000e+00  1.4057938829804828e+00 1.5784981698268148e-04 0.0000000000000000e+00  1.4056597021971409e+00 2.2086133614698466e-04 0.0000000000000000e+00  1.4055168283164197e+00 1.2913007135049396e-04 0.0000000000000000e+00  1.4999818427253648e+00 8.7718211882288745e-10 0.0000000000000000e+00  1.5000669206576720e+00 -1.5708451184124345e-04 0.0000000000000000e+00  1.4989226481106548e+00 -1.8377421054236207e-04 0.0000000000000000e+00  1.4995996960307099e+00 -1.2641033111946613e-04 0.0000000000000000e+00  1.4973053388096687e+00 -6.3650702962692276e-05 0.0000000000000000e+00  1.4993088511757637e+00 8.5933414509751615e-05 0.0000000000000000e+00  1.4985686747947193e+00 2.8561980627829698e-04 0.0000000000000000e+00  1.4981260279973576e+00 4.6442640723869637e-04 0.0000000000000000e+00  1.4981401788447113e+00 3.4869850867341897e-04 0.0000000000000000e+00  1.4062361158937062e+00 6.5680764159824060e-10 0.0000000000000000e+00  1.4054884545717568e+00 -5.3510390100518343e-05 0.0000000000000000e+00  1.4059583962086415e+00 -2.3621420080698381e-04 0.0000000000000000e+00  1.4049697573133972e+00 -9.6537345363195169e-05 0.0000000000000000e+00  1.4064434229569216e+00 5.8809469471386705e-05 0.0000000000000000e+00  1.4036625671429395e+00 6.4183942530612116e-05 0.0000000000000000e+00  1.4066861739313843e+00 2.1339008998015594e-04 0.0000000000000000e+00  1.4052062386633606e+00 3.5251089003628697e-04 0.0000000000000000e+00  1.4050363547329316e+00 3.6957492864445068e-04 0.0000000000000000e+00  1.1249860148373556e+00 7.1796724300071913e-12 0.0000000000000000e+00  1.1252791982037320e+00 1.9139526346356126e-04 0.0000000000000000e+00  1.1248865776493946e+00 -7.1621555868542803e-05 0.0000000000000000e+00  1.1244958744869911e+00 -7.4271822651729284e-05 0.0000000000000000e+00  1.1240398017569300e+00 -2.7679397957214386e-05 0.0000000000000000e+00  1.1247774512093816e+00 -6.2233821982058252e-06 0.0000000000000000e+00  1.1225815135386235e+00 2.1791872332753453e-04 0.0000000000000000e+00  1.1250791809616092e+00 4.3561141427324443e-04 0.0000000000000000e+00  1.1240842277461898e+00 5.2704075785753920e-04 0.0000000000000000e+00  6.5624143970243964e-01 -2.3407018526297033e-10 0.0000000000000000e+00  6.5588076934962058e-01 2.2222308803195124e-05 0.0000000000000000e+00  6.5653072685545133e-01 -2.0426979919341650e-04 0.0000000000000000e+00  6.5619591031467184e-01 -1.9558419993405744e-05 0.0000000000000000e+00  6.5663876551938971e-01 -2.1956517212354448e-05 0.0000000000000000e+00  6.5571905784405382e-01 3.8948794268792474e-05 0.0000000000000000e+00  6.5788121109655240e-01 2.2243771689006039e-04 0.0000000000000000e+00  6.5575627593400332e-01 1.7508425045935599e-04 0.0000000000000000e+00  6.5985921859361341e-01 5.7073884133304815e-04 0.0000000000000000e+00  -7.0280244013623855e-06 -8.1062080732206411e-10 0.0000000000000000e+00  -7.2265144716600841e-06 -5.1778434739426029e-10 0.0000000000000000e+00  -4.6034481840525238e-06 -2.6615126186415877e-10 0.0000000000000000e+00  -6.2742216393249568e-06 9.0235664389947747e-10 0.0000000000000000e+00  -2.2747496074865053e-06 1.1538960757088372e-09 0.0000000000000000e+00  -6.9280069904621341e-06 -1.4987509580659022e-09 0.0000000000000000e+00  -7.0875032472528130e-06 -4.5955204622896606e-10 0.0000000000000000e+00  4.7845824060791796e-07 5.1383415694293256e-10 0.0000000000000000e+00  -1.0283074110207921e-05 -4.5187918745225299e-09 0.0000000000000000e+00  </DataArray> 
</PointData> 
</Piece>
</UnstructuredGrid>
</VTKFile>