<?xml version="1.0"?>
<VTKFile type="UnstructuredGrid"  version="0.1"  >
<UnstructuredGrid>
<Piece  NumberOfPoints="81" NumberOfCells="128">
<Points>
<DataArray  type="Float64"  NumberOfComponents="3"  format="ascii">0 0 0  0.275 0 0  0.55 0 0  0.8250000000000001 0 0  1.1 0 0  1.375 0 0  1.65 0 0  1.925 0 0  2.2 0 0  0 0.05125 0  0.275 0.05125 0  0.55 0.05125 0  0.8250000000000001 0.05125 0  1.1 0.05125 0  1.375 0.05125 0  1.65 0.05125 0  1.925 0.05125 0  2.2 0.05125 0  0 0.1025 0  0.275 0.1025 0  0.55 0.1025 0  0.8250000000000001 0.1025 0  1.1 0.1025 0  1.375 0.1025 0  1.65 0.1025 0  1.925 0.1025 0  2.2 0.1025 0  0 0.15375 0  0.275 0.15375 0  0.55 0.15375 0  0.8250000000000001 0.15375 0  1.1 0.15375 0  1.375 0.15375 0  1.65 0.15375 0  1.925 0.15375 0  2.2 0.15375 0  0 0.205 0  0.275 0.205 0  0.55 0.205 0  0.8250000000000001 0.205 0  1.1 0.205 0  1.375 0.205 0  1.65 0.205 0  1.925 0.205 0  2.2 0.205 0  0 0.25625 0  0.275 0.25625 0  0.55 0.25625 0  0.8250000000000001 0.25625 0  1.1 0.25625 0  1.375 0.25625 0  1.65 0.25625 0  1.925 0.25625 0  2.2 0.25625 0  0 0.3075 0  0.275 0.3075 0  0.55 0.3075 0  0.8250000000000001 0.3075 0  1.1 0.3075 0  1.375 0.3075 0  1.65 0.3075 0  1.925 0.3075 0  2.2 0.3075 0  0 0.35875 0  0.275 0.35875 0  0.55 0.35875 0  0.8250000000000001 0.35875 0  1.1 0.35875 0  1.375 0.35875 0  1.65 0.35875 0  1.925 0.35875 0  2.2 0.35875 0  0 0.41 0  0.275 0.41 0  0.55 0.41 0  0.8250000000000001 0.41 0  1.1 0.41 0  1.375 0.41 0  1.65 0.41 0  1.925 0.41 0  2.2 0.41 0  </DataArray>
</Points>
<Cells>
<DataArray  type="UInt32"  Name="connectivity"  format="ascii">0 1 9  1 9 10  1 2 11  1 10 11  2 3 11  3 11 12  3 4 13  3 12 13  4 5 13  5 13 14  5 6 15  5 14 15  6 7 15  7 15 16  7 8 17  7 16 17  9 10 19  9 18 19  10 11 19  11 19 20  11 12 21  11 20 21  12 13 21  13 21 22  13 14 23  13 22 23  14 15 23  15 23 24  15 16 25  15 24 25  16 17 25  17 25 26  18 19 27  19 27 28  19 20 29  19 28 29  20 21 29  21 29 30  21 22 31  21 30 31  22 23 31  23 31 32  23 24 33  23 32 33  24 25 33  25 33 34  25 26 35  25 34 35  27 28 37  27 36 37  28 29 37  29 37 38  29 30 39  29 38 39  30 31 39  31 39 40  31 32 41  31 40 41  32 33 41  33 41 42  33 34 43  33 42 43  34 35 43  35 43 44  36 37 45  37 45 46  37 38 47  37 46 47  38 39 47  39 47 48  39 40 49  39 48 49  40 41 49  41 49 50  41 42 51  41 50 51  42 43 51  43 51 52  43 44 53  43 52 53  45 46 55  45 54 55  46 47 55  47 55 56  47 48 57  47 56 57  48 49 57  49 57 58  49 50 59  49 58 59  50 51 59  51 59 60  51 52 61  51 60 61  52 53 61  53 61 62  54 55 63  55 63 64  55 56 65  55 64 65  56 57 65  57 65 66  57 58 67  57 66 67  58 59 67  59 67 68  59 60 69  59 68 69  60 61 69  61 69 70  61 62 71  61 70 71  63 64 73  63 72 73  64 65 73  65 73 74  65 66 75  65 74 75  66 67 75  67 75 76  67 68 77  67 76 77  68 69 77  69 77 78  69 70 79  69 78 79  70 71 79  71 79 80  </DataArray>
<DataArray  type="UInt32"  Name="offsets"  format="ascii">3 6 9 12 15 18 21 24 27 30 33 36 39 42 45 48 51 54 57 60 63 66 69 72 75 78 81 84 87 90 93 96 99 102 105 108 111 114 117 120 123 126 129 132 135 138 141 144 147 150 153 156 159 162 165 168 171 174 177 180 183 186 189 192 195 198 201 204 207 210 213 216 219 222 225 228 231 234 237 240 243 246 249 252 255 258 261 264 267 270 273 276 279 282 285 288 291 294 297 300 303 306 309 312 315 318 321 324 327 330 333 336 339 342 345 348 351 354 357 360 363 366 369 372 375 378 381 384 </DataArray>
<DataArray  type="UInt8"  Name="types"  format="ascii">5 5 5 5 5 5 5 5 5 5 5 5 5 5 5 5 5 5 5 5 5 5 5 5 5 5 5 5 5 5 5 5 5 5 5 5 5 5 5 5 5 5 5 5 5 5 5 5 5 5 5 5 5 5 5 5 5 5 5 5 5 5 5 5 5 5 5 5 5 5 5 5 5 5 5 5 5 5 5 5 5 5 5 5 5 5 5 5 5 5 5 5 5 5 5 5 5 5 5 5 5 5 5 5 5 5 5 5 5 5 5 5 5 5 5 5 5 5 5 5 5 5 5 5 5 5 5 5 </DataArray>
</Cells>
<PointData  Vectors="f_16"> 
<DataArray  type="Float64"  Name="f_16"  NumberOfComponents="3" format="ascii">2.0492133146865955e-05 -4.6974601684659015e-09 0.0000000000000000e+00  -1.2021931960920697e-06 1.3329234096544366e-10 0.0000000000000000e+00  1.0396708721773676e-06 -8.5638235460500186e-10 0.0000000000000000e+00  -8.2914044483404640e-06 2.5930297084756014e-10 0.0000000000000000e+00  -2.9364964986190455e-06 1.5860971252824770e-10 0.0000000000000000e+00  -4.7757077585365118e-06 3.7023717270798218e-10 0.0000000000000000e+00  -5.1883982732585544e-06 5.0995146734037194e-11 0.0000000000000000e+00  -5.9134694487974268e-06 6.3259257976211309e-10 0.0000000000000000e+00  -1.2145439250788907e-06 8.9511439035747927e-10 0.0000000000000000e+00  6.5624702261016832e-01 -6.5410772485228832e-10 0.0000000000000000e+00  6.5719624970200785e-01 -1.2845880117243419e-04 0.0000000000000000e+00  6.5847688728084686e-01 1.2744280440843709e-04 0.0000000000000000e+00  6.5822619577649621e-01 -2.0409932549513001e-05 0.0000000000000000e+00  6.5903315783396310e-01 -2.7206228367595786e-05 0.0000000000000000e+00  6.5869009708633774e-01 7.9523920647258506e-05 0.0000000000000000e+00  6.5859739101568826e-01 -3.6012944087322777e-05 0.0000000000000000e+00  6.5769630365633902e-01 -1.3233535708322400e-05 0.0000000000000000e+00  6.5915774502616753e-01 -6.3099818783603136e-04 0.0000000000000000e+00  1.1249841035573198e+00 1.5625757462607554e-09 0.0000000000000000e+00  1.1256732049591018e+00 -6.4207464084718930e-04 0.0000000000000000e+00  1.1239235914845171e+00 -1.6296506808090744e-04 0.0000000000000000e+00  1.1266190590510914e+00 -8.6363763823107858e-05 0.0000000000000000e+00  1.1256169483462060e+00 1.2989653724966365e-05 0.0000000000000000e+00  1.1253626222019040e+00 1.9434564856931862e-04 0.0000000000000000e+00  1.1252168512382337e+00 1.6809704866053399e-04 0.0000000000000000e+00  1.1248217324129743e+00 1.6453888723405146e-04 0.0000000000000000e+00  1.1239611034179959e+00 -3.2897549814504823e-04 0.0000000000000000e+00  1.4062394813256993e+00 5.1248100752693824e-10 0.0000000000000000e+00  1.4056339208499429e+00 -1.8846113824080485e-04 0.0000000000000000e+00  1.4069712839378905e+00 -1.1817756874946222e-04 0.0000000000000000e+00  1.4045734238018117e+00 -1.3563183906287790e-04 0.0000000000000000e+00  1.4069127092530804e+00 -2.1525078818686170e-04 0.0000000000000000e+00  1.4061659785656799e+00 8.2596708212586849e-05 0.0000000000000000e+00  1.4061057415261311e+00 2.2997492796373131e-04 0.0000000000000000e+00  1.4054571473991828e+00 1.4573209302343586e-04 0.0000000000000000e+00  1.4048087336587538e+00 -1.2186762080149009e-04 0.0000000000000000e+00  1.4999818462710510e+00 8.6902565683039573e-10 0.0000000000000000e+00  1.5002288153304038e+00 -1.5629892646959191e-04 0.0000000000000000e+00  1.4989615218466366e+00 -1.8086719084008335e-04 0.0000000000000000e+00  1.4992707814801722e+00 -1.1907769263549095e-04 0.0000000000000000e+00  1.4969604824524223e+00 -5.2989280621165022e-05 0.0000000000000000e+00  1.4995457205822398e+00 9.9878181549944195e-05 0.0000000000000000e+00  1.4989299990655802e+00 2.9735277535025483e-04 0.0000000000000000e+00  1.4977774157011561e+00 4.7122317118993267e-04 0.0000000000000000e+00  1.4973103547421351e+00 3.3967938156484934e-04 0.0000000000000000e+00  1.4062361169275464e+00 -1.1563211023058478e-11 0.0000000000000000e+00  1.4055406979251206e+00 -2.8868644401210390e-05 0.0000000000000000e+00  1.4060673540850219e+00 -2.6334773604396919e-04 0.0000000000000000e+00  1.4048194241721546e+00 -1.2553301243717213e-04 0.0000000000000000e+00  1.4062091662371548e+00 1.1938532631448246e-04 0.0000000000000000e+00  1.4037912048875709e+00 1.0115885123007426e-04 0.0000000000000000e+00  1.4070858901212344e+00 1.7041319114087151e-04 0.0000000000000000e+00  1.4051315504872310e+00 4.3589984885259380e-04 0.0000000000000000e+00  1.4044550423295321e+00 5.8676731358489826e-04 0.0000000000000000e+00  1.1249860173715469e+00 -6.9745742333460490e-10 0.0000000000000000e+00  1.1254015989655959e+00 2.1352076126996477e-04 0.0000000000000000e+00  1.1249381316104059e+00 -6.3582313850575766e-05 0.0000000000000000e+00  1.1246626810183453e+00 -1.1074030576978456e-04 0.0000000000000000e+00  1.1241046925415916e+00 -1.1227057638232916e-05 0.0000000000000000e+00  1.1250017638654819e+00 -2.4259192186705638e-06 0.0000000000000000e+00  1.1227865611144330e+00 2.1142835261019755e-04 0.0000000000000000e+00  1.1254862485889143e+00 4.9049591938112600e-04 0.0000000000000000e+00  1.1241394167222116e+00 9.7119343865913177e-04 0.0000000000000000e+00  6.5624144002493234e-01 -2.7531722170289039e-11 0.0000000000000000e+00  6.5595012739149172e-01 2.3028254662075113e-05 0.0000000000000000e+00  6.5665026900285950e-01 -1.9790205687050848e-04 0.0000000000000000e+00  6.5623887342563036e-01 -3.0134577610154635e-05 0.0000000000000000e+00  6.5696747228406516e-01 -7.2903015878135618e-06 0.0000000000000000e+00  6.5589650084302065e-01 2.2943896940624950e-06 0.0000000000000000e+00  6.5831652009524488e-01 2.6346557271364810e-04 0.0000000000000000e+00  6.5616313277150107e-01 2.1485294741560405e-04 0.0000000000000000e+00  6.6163675419601864e-01 1.1371204764991166e-03 0.0000000000000000e+00  -7.0262483549840528e-06 -5.1330482853949309e-10 0.0000000000000000e+00  -7.2275538700669306e-06 -5.9766190625367482e-10 0.0000000000000000e+00  -4.6062550474756966e-06 -1.0919443674599691e-10 0.0000000000000000e+00  -6.2732368200873033e-06 1.4179134381013777e-09 0.0000000000000000e+00  -2.2706837033133632e-06 9.6522771559878988e-10 0.0000000000000000e+00  -6.9314864664394816e-06 -2.7456892663183487e-09 0.0000000000000000e+00  -7.0887516999146846e-06 -1.6110635676551139e-10 0.0000000000000000e+00  4.8846116474164448e-07 1.1739493569953232e-09 0.0000000000000000e+00  -1.0265013477457388e-05 -6.2862760797140733e-09 0.0000000000000000e+00  </DataArray> 
</PointData> 
</Piece>
</UnstructuredGrid>
</VTKFile>