<?xml version="1.0"?>
<VTKFile type="UnstructuredGrid"  version="0.1"  >
<UnstructuredGrid>
<Piece  NumberOfPoints="81" NumberOfCells="128">
<Points>
<DataArray  type="Float64"  NumberOfComponents="3"  format="ascii">0 0 0  0.275 0 0  0.55 0 0  0.8250000000000001 0 0  1.1 0 0  1.375 0 0  1.65 0 0  1.925 0 0  2.2 0 0  0 0.05125 0  0.275 0.05125 0  0.55 0.05125 0  0.8250000000000001 0.05125 0  1.1 0.05125 0  1.375 0.05125 0  1.65 0.05125 0  1.925 0.05125 0  2.2 0.05125 0  0 0.1025 0  0.275 0.1025 0  0.55 0.1025 0  0.8250000000000001 0.1025 0  1.1 0.1025 0  1.375 0.1025 0  1.65 0.1025 0  1.925 0.1025 0  2.2 0.1025 0  0 0.15375 0  0.275 0.15375 0  0.55 0.15375 0  0.8250000000000001 0.15375 0  1.1 0.15375 0  1.375 0.15375 0  1.65 0.15375 0  1.925 0.15375 0  2.2 0.15375 0  0 0.205 0  0.275 0.205 0  0.55 0.205 0  0.8250000000000001 0.205 0  1.1 0.205 0  1.375 0.205 0  1.65 0.205 0  1.925 0.205 0  2.2 0.205 0  0 0.25625 0  0.275 0.25625 0  0.55 0.25625 0  0.8250000000000001 0.25625 0  1.1 0.25625 0  1.375 0.25625 0  1.65 0.25625 0  1.925 0.25625 0  2.2 0.25625 0  0 0.3075 0  0.275 0.3075 0  0.55 0.3075 0  0.8250000000000001 0.3075 0  1.1 0.3075 0  1.375 0.3075 0  1.65 0.3075 0  1.925 0.3075 0  2.2 0.3075 0  0 0.35875 0  0.275 0.35875 0  0.55 0.35875 0  0.8250000000000001 0.35875 0  1.1 0.35875 0  1.375 0.35875 0  1.65 0.35875 0  1.925 0.35875 0  2.2 0.35875 0  0 0.41 0  0.275 0.41 0  0.55 0.41 0  0.8250000000000001 0.41 0  1.1 0.41 0  1.375 0.41 0  1.65 0.41 0  1.925 0.41 0  2.2 0.41 0  </DataArray>
</Points>
<Cells>
<DataArray  type="UInt32"  Name="connectivity"  format="ascii">0 1 9  1 9 10  1 2 11  1 10 11  2 3 11  3 11 12  3 4 13  3 12 13  4 5 13  5 13 14  5 6 15  5 14 15  6 7 15  7 15 16  7 8 17  7 16 17  9 10 19  9 18 19  10 11 19  11 19 20  11 12 21  11 20 21  12 13 21  13 21 22  13 14 23  13 22 23  14 15 23  15 23 24  15 16 25  15 24 25  16 17 25  17 25 26  18 19 27  19 27 28  19 20 29  19 28 29  20 21 29  21 29 30  21 22 31  21 30 31  22 23 31  23 31 32  23 24 33  23 32 33  24 25 33  25 33 34  25 26 35  25 34 35  27 28 37  27 36 37  28 29 37  29 37 38  29 30 39  29 38 39  30 31 39  31 39 40  31 32 41  31 40 41  32 33 41  33 41 42  33 34 43  33 42 43  34 35 43  35 43 44  36 37 45  37 45 46  37 38 47  37 46 47  38 39 47  39 47 48  39 40 49  39 48 49  40 41 49  41 49 50  41 42 51  41 50 51  42 43 51  43 51 52  43 44 53  43 52 53  45 46 55  45 54 55  46 47 55  47 55 56  47 48 57  47 56 57  48 49 57  49 57 58  49 50 59  49 58 59  50 51 59  51 59 60  51 52 61  51 60 61  52 53 61  53 61 62  54 55 63  55 63 64  55 56 65  55 64 65  56 57 65  57 65 66  57 58 67  57 66 67  58 59 67  59 67 68  59 60 69  59 68 69  60 61 69  61 69 70  61 62 71  61 70 71  63 64 73  63 72 73  64 65 73  65 73 74  65 66 75  65 74 75  66 67 75  67 75 76  67 68 77  67 76 77  68 69 77  69 77 78  69 70 79  69 78 79  70 71 79  71 79 80  </DataArray>
<DataArray  type="UInt32"  Name="offsets"  format="ascii">3 6 9 12 15 18 21 24 27 30 33 36 39 42 45 48 51 54 57 60 63 66 69 72 75 78 81 84 87 90 93 96 99 102 105 108 111 114 117 120 123 126 129 132 135 138 141 144 147 150 153 156 159 162 165 168 171 174 177 180 183 186 189 192 195 198 201 204 207 210 213 216 219 222 225 228 231 234 237 240 243 246 249 252 255 258 261 264 267 270 273 276 279 282 285 288 291 294 297 300 303 306 309 312 315 318 321 324 327 330 333 336 339 342 345 348 351 354 357 360 363 366 369 372 375 378 381 384 </DataArray>
<DataArray  type="UInt8"  Name="types"  format="ascii">5 5 5 5 5 5 5 5 5 5 5 5 5 5 5 5 5 5 5 5 5 5 5 5 5 5 5 5 5 5 5 5 5 5 5 5 5 5 5 5 5 5 5 5 5 5 5 5 5 5 5 5 5 5 5 5 5 5 5 5 5 5 5 5 5 5 5 5 5 5 5 5 5 5 5 5 5 5 5 5 5 5 5 5 5 5 5 5 5 5 5 5 5 5 5 5 5 5 5 5 5 5 5 5 5 5 5 5 5 5 5 5 5 5 5 5 5 5 5 5 5 5 5 5 5 5 5 5 </DataArray>
</Cells>
<PointData  Vectors="f_16"> 
<DataArray  type="Float64"  Name="f_16"  NumberOfComponents="3" format="ascii">2.0489715396085392e-05 -4.4091655946993214e-09 0.0000000000000000e+00  -1.2012864737283638e-06 -2.5969692336610728e-11 0.0000000000000000e+00  1.0438199662596402e-06 -9.8882370969140754e-10 0.0000000000000000e+00  -8.2927587179971845e-06 1.0061113707399073e-09 0.0000000000000000e+00  -2.9406094199310042e-06 4.7975981651989593e-12 0.0000000000000000e+00  -4.7736152573614443e-06 -8.4454261972431585e-10 0.0000000000000000e+00  -5.1846079869555729e-06 -3.9059719290115523e-10 0.0000000000000000e+00  -5.9224623197766816e-06 -4.3190908326400279e-10 0.0000000000000000e+00  -1.2397064430449179e-06 1.9467028762394208e-10 0.0000000000000000e+00  6.5624702208837160e-01 -2.6595456287969343e-10 0.0000000000000000e+00  6.5712383495779148e-01 -1.2743830441858456e-04 0.0000000000000000e+00  6.5837210601609442e-01 1.3420415034601902e-04 0.0000000000000000e+00  6.5820437396538733e-01 -3.2532233960616424e-05 0.0000000000000000e+00  6.5877304214961629e-01 -2.0665106690629888e-05 0.0000000000000000e+00  6.5863248189437817e-01 3.7356898218435793e-05 0.0000000000000000e+00  6.5836161324305420e-01 1.5414603823154586e-06 0.0000000000000000e+00  6.5750686515463586e-01 2.7451751210485329e-05 0.0000000000000000e+00  6.5751521479347330e-01 -4.3636868092373871e-05 0.0000000000000000e+00  1.1249841009852350e+00 9.7501743484714556e-10 0.0000000000000000e+00  1.1255467504622623e+00 -6.1887492497176948e-04 0.0000000000000000e+00  1.1238767251267276e+00 -1.5392836367220743e-04 0.0000000000000000e+00  1.1264590053426551e+00 -1.3426181872719804e-04 0.0000000000000000e+00  1.1256172911974633e+00 9.3651714077328875e-06 0.0000000000000000e+00  1.1252597655844978e+00 1.8473488646580745e-04 0.0000000000000000e+00  1.1251990004420540e+00 1.4966132781514267e-04 0.0000000000000000e+00  1.1246457606765439e+00 2.1034942851605383e-04 0.0000000000000000e+00  1.1241709556830961e+00 1.4383540484819718e-04 0.0000000000000000e+00  1.4062394803180280e+00 -1.1881070101930832e-10 0.0000000000000000e+00  1.4055789767311759e+00 -1.6182869293647760e-04 0.0000000000000000e+00  1.4068338551920705e+00 -1.4458125619960866e-04 0.0000000000000000e+00  1.4047321502643211e+00 -1.8715230795028851e-04 0.0000000000000000e+00  1.4072230103792689e+00 -1.7917719383365042e-04 0.0000000000000000e+00  1.4061104596863079e+00 1.0166794091680195e-04 0.0000000000000000e+00  1.4057759202868993e+00 1.5783271595730140e-04 0.0000000000000000e+00  1.4056788187340781e+00 2.0952598470620705e-04 0.0000000000000000e+00  1.4055893713401590e+00 1.3043538754845392e-04 0.0000000000000000e+00  1.4999818420636954e+00 8.8514251512032091e-10 0.0000000000000000e+00  1.5000598757256134e+00 -1.5753705067758278e-04 0.0000000000000000e+00  1.4988843017297184e+00 -1.8403288559521239e-04 0.0000000000000000e+00  1.4995945974687783e+00 -1.2689626504696402e-04 0.0000000000000000e+00  1.4973624847190903e+00 -6.6152467424415728e-05 0.0000000000000000e+00  1.4993104752539410e+00 8.2572941304322095e-05 0.0000000000000000e+00  1.4985315529917629e+00 2.8133906502999893e-04 0.0000000000000000e+00  1.4981521427436362e+00 4.5726935189625958e-04 0.0000000000000000e+00  1.4982013586687544e+00 3.4082531921608570e-04 0.0000000000000000e+00  1.4062361155656919e+00 6.7708622943363051e-10 0.0000000000000000e+00  1.4054863919110798e+00 -5.7164042179610286e-05 0.0000000000000000e+00  1.4059301676552065e+00 -2.3936799128622188e-04 0.0000000000000000e+00  1.4049595288987198e+00 -8.8393355222709434e-05 0.0000000000000000e+00  1.4064852040715081e+00 5.9887120957466751e-05 0.0000000000000000e+00  1.4036732742865918e+00 5.0272487051523830e-05 0.0000000000000000e+00  1.4066514694669892e+00 2.0539612724443097e-04 0.0000000000000000e+00  1.4051941594535926e+00 3.5170534915128125e-04 0.0000000000000000e+00  1.4050598427233190e+00 3.5382697433642731e-04 0.0000000000000000e+00  1.1249860143570052e+00 -3.9050118504616182e-11 0.0000000000000000e+00  1.1252780418128898e+00 1.8926821356795347e-04 0.0000000000000000e+00  1.1248829405737057e+00 -7.6344088870554497e-05 0.0000000000000000e+00  1.1244805160394262e+00 -7.2167457057192700e-05 0.0000000000000000e+00  1.1240381842953941e+00 -2.3967076724456035e-05 0.0000000000000000e+00  1.1247769313929332e+00 -1.5736931877390123e-05 0.0000000000000000e+00  1.1225598165717341e+00 2.0841407588650601e-04 0.0000000000000000e+00  1.1250287802960255e+00 4.3408713362169503e-04 0.0000000000000000e+00  1.1240270197798430e+00 5.1546965478819302e-04 0.0000000000000000e+00  6.5624143948267466e-01 -3.4332225763263860e-10 0.0000000000000000e+00  6.5587877389831695e-01 2.1635441766463887e-05 0.0000000000000000e+00  6.5653745957946397e-01 -2.0534772156211432e-04 0.0000000000000000e+00  6.5618719955002247e-01 -2.1096753752275130e-05 0.0000000000000000e+00  6.5664208820488534e-01 -2.0200183375833008e-05 0.0000000000000000e+00  6.5569967852332944e-01 3.6413300142792278e-05 0.0000000000000000e+00  6.5786903709403532e-01 2.1935804129745074e-04 0.0000000000000000e+00  6.5571086302113168e-01 1.7401270594614480e-04 0.0000000000000000e+00  6.5979340666112296e-01 5.7172002869370622e-04 0.0000000000000000e+00  -7.0284279597721915e-06 -8.4065192041897645e-10 0.0000000000000000e+00  -7.2265529423226333e-06 -4.8995974583887667e-10 0.0000000000000000e+00  -4.6028423499259997e-06 -2.0701923779171728e-10 0.0000000000000000e+00  -6.2741926514673874e-06 7.9151172190118716e-10 0.0000000000000000e+00  -2.2756711938480673e-06 1.1012418497683245e-09 0.0000000000000000e+00  -6.9280381766186136e-06 -1.3182981721606855e-09 0.0000000000000000e+00  -7.0864128567242611e-06 -4.2180120088891496e-10 0.0000000000000000e+00  4.7817389257486674e-07 3.0709614118867340e-10 0.0000000000000000e+00  -1.0283920206785135e-05 -4.5035638842324065e-09 0.0000000000000000e+00  </DataArray> 
</PointData> 
</Piece>
</UnstructuredGrid>
</VTKFile>