<?xml version="1.0"?>
<VTKFile type="UnstructuredGrid"  version="0.1"  >
<UnstructuredGrid>
<Piece  NumberOfPoints="81" NumberOfCells="128">
<Points>
<DataArray  type="Float64"  NumberOfComponents="3"  format="ascii">0 0 0  0.275 0 0  0.55 0 0  0.8250000000000001 0 0  1.1 0 0  1.375 0 0  1.65 0 0  1.925 0 0  2.2 0 0  0 0.05125 0  0.275 0.05125 0  0.55 0.05125 0  0.8250000000000001 0.05125 0  1.1 0.05125 0  1.375 0.05125 0  1.65 0.05125 0  1.925 0.05125 0  2.2 0.05125 0  0 0.1025 0  0.275 0.1025 0  0.55 0.1025 0  0.8250000000000001 0.1025 0  1.1 0.1025 0  1.375 0.1025 0  1.65 0.1025 0  1.925 0.1025 0  2.2 0.1025 0  0 0.15375 0  0.275 0.15375 0  0.55 0.15375 0  0.8250000000000001 0.15375 0  1.1 0.15375 0  1.375 0.15375 0  1.65 0.15375 0  1.925 0.15375 0  2.2 0.15375 0  0 0.205 0  0.275 0.205 0  0.55 0.205 0  0.8250000000000001 0.205 0  1.1 0.205 0  1.375 0.205 0  1.65 0.205 0  1.925 0.205 0  2.2 0.205 0  0 0.25625 0  0.275 0.25625 0  0.55 0.25625 0  0.8250000000000001 0.25625 0  1.1 0.25625 0  1.375 0.25625 0  1.65 0.25625 0  1.925 0.25625 0  2.2 0.25625 0  0 0.3075 0  0.275 0.3075 0  0.55 0.3075 0  0.8250000000000001 0.3075 0  1.1 0.3075 0  1.375 0.3075 0  1.65 0.3075 0  1.925 0.3075 0  2.2 0.3075 0  0 0.35875 0  0.275 0.35875 0  0.55 0.35875 0  0.8250000000000001 0.35875 0  1.1 0.35875 0  1.375 0.35875 0  1.65 0.35875 0  1.925 0.35875 0  2.2 0.35875 0  0 0.41 0  0.275 0.41 0  0.55 0.41 0  0.8250000000000001 0.41 0  1.1 0.41 0  1.375 0.41 0  1.65 0.41 0  1.925 0.41 0  2.2 0.41 0  </DataArray>
</Points>
<Cells>
<DataArray  type="UInt32"  Name="connectivity"  format="ascii">0 1 9  1 9 10  1 2 11  1 10 11  2 3 11  3 11 12  3 4 13  3 12 13  4 5 13  5 13 14  5 6 15  5 14 15  6 7 15  7 15 16  7 8 17  7 16 17  9 10 19  9 18 19  10 11 19  11 19 20  11 12 21  11 20 21  12 13 21  13 21 22  13 14 23  13 22 23  14 15 23  15 23 24  15 16 25  15 24 25  16 17 25  17 25 26  18 19 27  19 27 28  19 20 29  19 28 29  20 21 29  21 29 30  21 22 31  21 30 31  22 23 31  23 31 32  23 24 33  23 32 33  24 25 33  25 33 34  25 26 35  25 34 35  27 28 37  27 36 37  28 29 37  29 37 38  29 30 39  29 38 39  30 31 39  31 39 40  31 32 41  31 40 41  32 33 41  33 41 42  33 34 43  33 42 43  34 35 43  35 43 44  36 37 45  37 45 46  37 38 47  37 46 47  38 39 47  39 47 48  39 40 49  39 48 49  40 41 49  41 49 50  41 42 51  41 50 51  42 43 51  43 51 52  43 44 53  43 52 53  45 46 55  45 54 55  46 47 55  47 55 56  47 48 57  47 56 57  48 49 57  49 57 58  49 50 59  49 58 59  50 51 59  51 59 60  51 52 61  51 60 61  52 53 61  53 61 62  54 55 63  55 63 64  55 56 65  55 64 65  56 57 65  57 65 66  57 58 67  57 66 67  58 59 67  59 67 68  59 60 69  59 68 69  60 61 69  61 69 70  61 62 71  61 70 71  63 64 73  63 72 73  64 65 73  65 73 74  65 66 75  65 74 75  66 67 75  67 75 76  67 68 77  67 76 77  68 69 77  69 77 78  69 70 79  69 78 79  70 71 79  71 79 80  </DataArray>
<DataArray  type="UInt32"  Name="offsets"  format="ascii">3 6 9 12 15 18 21 24 27 30 33 36 39 42 45 48 51 54 57 60 63 66 69 72 75 78 81 84 87 90 93 96 99 102 105 108 111 114 117 120 123 126 129 132 135 138 141 144 147 150 153 156 159 162 165 168 171 174 177 180 183 186 189 192 195 198 201 204 207 210 213 216 219 222 225 228 231 234 237 240 243 246 249 252 255 258 261 264 267 270 273 276 279 282 285 288 291 294 297 300 303 306 309 312 315 318 321 324 327 330 333 336 339 342 345 348 351 354 357 360 363 366 369 372 375 378 381 384 </DataArray>
<DataArray  type="UInt8"  Name="types"  format="ascii">5 5 5 5 5 5 5 5 5 5 5 5 5 5 5 5 5 5 5 5 5 5 5 5 5 5 5 5 5 5 5 5 5 5 5 5 5 5 5 5 5 5 5 5 5 5 5 5 5 5 5 5 5 5 5 5 5 5 5 5 5 5 5 5 5 5 5 5 5 5 5 5 5 5 5 5 5 5 5 5 5 5 5 5 5 5 5 5 5 5 5 5 5 5 5 5 5 5 5 5 5 5 5 5 5 5 5 5 5 5 5 5 5 5 5 5 5 5 5 5 5 5 5 5 5 5 5 5 </DataArray>
</Cells>
<PointData  Vectors="f_16"> 
<DataArray  type="Float64"  Name="f_16"  NumberOfComponents="3" format="ascii">2.1581493149792733e-05 -1.1852250888320093e-07 0.0000000000000000e+00  -9.1186500176123200e-07 -3.1791111965328717e-08 0.0000000000000000e+00  1.4523922546287690e-06 -8.8545295977316092e-08 0.0000000000000000e+00  -8.7114885927267310e-06 6.9817705521770680e-08 0.0000000000000000e+00  -3.8486688509811779e-06 1.7542524104633450e-07 0.0000000000000000e+00  -5.6453723013113756e-06 5.3392049065992686e-08 0.0000000000000000e+00  -7.9016606121451644e-06 4.1776266876794491e-08 0.0000000000000000e+00  -6.7485107473826056e-06 -1.3471697997876502e-07 0.0000000000000000e+00  -3.3767056026282884e-06 -1.4345275422879118e-08 0.0000000000000000e+00  6.5624736637592629e-01 -4.0854584257079235e-08 0.0000000000000000e+00  6.6082286738619311e-01 -5.8403872296156046e-04 0.0000000000000000e+00  6.7971648207304747e-01 -8.0373857363134019e-03 0.0000000000000000e+00  7.4882694992419541e-01 -1.6030640422089008e-02 0.0000000000000000e+00  8.8083629850276324e-01 -1.0119266202369999e-02 0.0000000000000000e+00  9.4326457435759037e-01 -3.1865596622683008e-03 0.0000000000000000e+00  9.2112705916063109e-01 5.0511564983091346e-03 0.0000000000000000e+00  9.3546883383364832e-01 -3.6053216453216344e-04 0.0000000000000000e+00  9.1634618015541880e-01 3.5291508313168829e-03 0.0000000000000000e+00  1.1249846268879262e+00 1.1147912254688656e-08 0.0000000000000000e+00  1.1257679070158686e+00 -1.9033565633197740e-03 0.0000000000000000e+00  1.1294916962688371e+00 -7.8024367870499498e-03 0.0000000000000000e+00  1.1062499278128639e+00 -2.1097103688290441e-02 0.0000000000000000e+00  1.1057945153071926e+00 -4.0246954418218031e-02 0.0000000000000000e+00  1.1741504580845004e+00 2.8931042344337377e-04 0.0000000000000000e+00  1.1850552803297230e+00 8.6124115066856938e-03 0.0000000000000000e+00  1.1744443446541515e+00 -1.0240373415202774e-02 0.0000000000000000e+00  1.1732410848226611e+00 7.3386309634859356e-03 0.0000000000000000e+00  1.4062400647611797e+00 -9.5251963470335862e-09 0.0000000000000000e+00  1.4094901895668253e+00 -2.3924600834324627e-03 0.0000000000000000e+00  1.4126289715351643e+00 3.7617358211685054e-04 0.0000000000000000e+00  1.3433131086350936e+00 -1.1423458445499100e-02 0.0000000000000000e+00  1.2423393307934045e+00 -3.5912096624943157e-02 0.0000000000000000e+00  1.1872296401108517e+00 -2.1973008300966187e-03 0.0000000000000000e+00  1.2155234093018210e+00 6.4360655020153056e-03 0.0000000000000000e+00  1.1915075472780525e+00 -3.2386429148241846e-03 0.0000000000000000e+00  1.1979205927826877e+00 9.1120698011697265e-03 0.0000000000000000e+00  1.4999823773695660e+00 -5.3611923920191113e-08 0.0000000000000000e+00  1.5100472221034069e+00 -1.7811174678524711e-04 0.0000000000000000e+00  1.5009986363459593e+00 -7.1744585690795148e-05 0.0000000000000000e+00  1.4299715698152831e+00 6.2002693229033302e-06 0.0000000000000000e+00  1.2996589969486383e+00 -6.3413031965414444e-05 0.0000000000000000e+00  1.1858667470198394e+00 9.7576012071713477e-05 0.0000000000000000e+00  1.2157010750433104e+00 1.1851510621457267e-04 0.0000000000000000e+00  1.1905568623756302e+00 2.1544540317902755e-04 0.0000000000000000e+00  1.1989993769212803e+00 3.1648569370903255e-05 0.0000000000000000e+00  1.4062369428724824e+00 -4.5973983709699694e-08 0.0000000000000000e+00  1.4093738063557830e+00 2.2388545208552168e-03 0.0000000000000000e+00  1.4120526227734527e+00 -4.7021592527520830e-04 0.0000000000000000e+00  1.3438737983175613e+00 1.1366440284845420e-02 0.0000000000000000e+00  1.2417347119967836e+00 3.5811771285422914e-02 0.0000000000000000e+00  1.1850624663877274e+00 2.2743422619907884e-03 0.0000000000000000e+00  1.2168385253637291e+00 -6.2761446650539685e-03 0.0000000000000000e+00  1.1911235426339883e+00 3.4456182710733388e-03 0.0000000000000000e+00  1.1973341943112437e+00 -9.2918830771618385e-03 0.0000000000000000e+00  1.1249863327526015e+00 -4.2594118330756091e-08 0.0000000000000000e+00  1.1254219249625512e+00 1.4396476847804525e-03 0.0000000000000000e+00  1.1307762356065201e+00 7.7529962041840749e-03 0.0000000000000000e+00  1.1051904673727493e+00 2.1081405177866910e-02 0.0000000000000000e+00  1.1053308827909709e+00 4.0263017462234929e-02 0.0000000000000000e+00  1.1744711477528402e+00 -2.4963266387313914e-04 0.0000000000000000e+00  1.1830936719231013e+00 -8.4453285895312348e-03 0.0000000000000000e+00  1.1752092368528091e+00 1.0515183910808121e-02 0.0000000000000000e+00  1.1725921105345605e+00 -7.1800124786645259e-03 0.0000000000000000e+00  6.5624198489816055e-01 2.9805719794783490e-08 0.0000000000000000e+00  6.5945901738614709e-01 4.4410955999569618e-04 0.0000000000000000e+00  6.7825830932300346e-01 8.0635182217460490e-03 0.0000000000000000e+00  7.4778020563895253e-01 1.6039199118839234e-02 0.0000000000000000e+00  8.8017233329821531e-01 1.0052468006535521e-02 0.0000000000000000e+00  9.4162713339693882e-01 3.1861673994690483e-03 0.0000000000000000e+00  9.2121208046037917e-01 -4.9021103394034857e-03 0.0000000000000000e+00  9.3333562991308405e-01 3.9792499340032133e-04 0.0000000000000000e+00  9.1722613061322344e-01 -3.2877585526368083e-03 0.0000000000000000e+00  -6.4279921115473713e-06 6.7050445190691516e-08 0.0000000000000000e+00  -6.9571722121179685e-06 1.9220136180158134e-09 0.0000000000000000e+00  -4.4113645413245532e-06 9.5534777977662421e-08 0.0000000000000000e+00  -5.8477068683596246e-06 -6.5828323983310453e-09 0.0000000000000000e+00  -2.8668785841504092e-06 -2.6720374407809288e-07 0.0000000000000000e+00  -7.7053892327470109e-06 -1.8070208609311615e-07 0.0000000000000000e+00  -8.9259066325198884e-06 -1.8234544996927449e-07 0.0000000000000000e+00  1.5971713560608703e-06 1.2087385622490250e-07 0.0000000000000000e+00  -1.0655202780730379e-05 4.2591319140926212e-08 0.0000000000000000e+00  </DataArray> 
</PointData> 
</Piece>
</UnstructuredGrid>
</VTKFile>