<?xml version="1.0"?>
<VTKFile type="UnstructuredGrid"  version="0.1"  >
<UnstructuredGrid>
<Piece  NumberOfPoints="81" NumberOfCells="128">
<Points>
<DataArray  type="Float64"  NumberOfComponents="3"  format="ascii">0 0 0  0.275 0 0  0.55 0 0  0.8250000000000001 0 0  1.1 0 0  1.375 0 0  1.65 0 0  1.925 0 0  2.2 0 0  0 0.05125 0  0.275 0.05125 0  0.55 0.05125 0  0.8250000000000001 0.05125 0  1.1 0.05125 0  1.375 0.05125 0  1.65 0.05125 0  1.925 0.05125 0  2.2 0.05125 0  0 0.1025 0  0.275 0.1025 0  0.55 0.1025 0  0.8250000000000001 0.1025 0  1.1 0.1025 0  1.375 0.1025 0  1.65 0.1025 0  1.925 0.1025 0  2.2 0.1025 0  0 0.15375 0  0.275 0.15375 0  0.55 0.15375 0  0.8250000000000001 0.15375 0  1.1 0.15375 0  1.375 0.15375 0  1.65 0.15375 0  1.925 0.15375 0  2.2 0.15375 0  0 0.205 0  0.275 0.205 0  0.55 0.205 0  0.8250000000000001 0.205 0  1.1 0.205 0  1.375 0.205 0  1.65 0.205 0  1.925 0.205 0  2.2 0.205 0  0 0.25625 0  0.275 0.25625 0  0.55 0.25625 0  0.8250000000000001 0.25625 0  1.1 0.25625 0  1.375 0.25625 0  1.65 0.25625 0  1.925 0.25625 0  2.2 0.25625 0  0 0.3075 0  0.275 0.3075 0  0.55 0.3075 0  0.8250000000000001 0.3075 0  1.1 0.3075 0  1.375 0.3075 0  1.65 0.3075 0  1.925 0.3075 0  2.2 0.3075 0  0 0.35875 0  0.275 0.35875 0  0.55 0.35875 0  0.8250000000000001 0.35875 0  1.1 0.35875 0  1.375 0.35875 0  1.65 0.35875 0  1.925 0.35875 0  2.2 0.35875 0  0 0.41 0  0.275 0.41 0  0.55 0.41 0  0.8250000000000001 0.41 0  1.1 0.41 0  1.375 0.41 0  1.65 0.41 0  1.925 0.41 0  2.2 0.41 0  </DataArray>
</Points>
<Cells>
<DataArray  type="UInt32"  Name="connectivity"  format="ascii">0 1 9  1 9 10  1 2 11  1 10 11  2 3 11  3 11 12  3 4 13  3 12 13  4 5 13  5 13 14  5 6 15  5 14 15  6 7 15  7 15 16  7 8 17  7 16 17  9 10 19  9 18 19  10 11 19  11 19 20  11 12 21  11 20 21  12 13 21  13 21 22  13 14 23  13 22 23  14 15 23  15 23 24  15 16 25  15 24 25  16 17 25  17 25 26  18 19 27  19 27 28  19 20 29  19 28 29  20 21 29  21 29 30  21 22 31  21 30 31  22 23 31  23 31 32  23 24 33  23 32 33  24 25 33  25 33 34  25 26 35  25 34 35  27 28 37  27 36 37  28 29 37  29 37 38  29 30 39  29 38 39  30 31 39  31 39 40  31 32 41  31 40 41  32 33 41  33 41 42  33 34 43  33 42 43  34 35 43  35 43 44  36 37 45  37 45 46  37 38 47  37 46 47  38 39 47  39 47 48  39 40 49  39 48 49  40 41 49  41 49 50  41 42 51  41 50 51  42 43 51  43 51 52  43 44 53  43 52 53  45 46 55  45 54 55  46 47 55  47 55 56  47 48 57  47 56 57  48 49 57  49 57 58  49 50 59  49 58 59  50 51 59  51 59 60  51 52 61  51 60 61  52 53 61  53 61 62  54 55 63  55 63 64  55 56 65  55 64 65  56 57 65  57 65 66  57 58 67  57 66 67  58 59 67  59 67 68  59 60 69  59 68 69  60 61 69  61 69 70  61 62 71  61 70 71  63 64 73  63 72 73  64 65 73  65 73 74  65 66 75  65 74 75  66 67 75  67 75 76  67 68 77  67 76 77  68 69 77  69 77 78  69 70 79  69 78 79  70 71 79  71 79 80  </DataArray>
<DataArray  type="UInt32"  Name="offsets"  format="ascii">3 6 9 12 15 18 21 24 27 30 33 36 39 42 45 48 51 54 57 60 63 66 69 72 75 78 81 84 87 90 93 96 99 102 105 108 111 114 117 120 123 126 129 132 135 138 141 144 147 150 153 156 159 162 165 168 171 174 177 180 183 186 189 192 195 198 201 204 207 210 213 216 219 222 225 228 231 234 237 240 243 246 249 252 255 258 261 264 267 270 273 276 279 282 285 288 291 294 297 300 303 306 309 312 315 318 321 324 327 330 333 336 339 342 345 348 351 354 357 360 363 366 369 372 375 378 381 384 </DataArray>
<DataArray  type="UInt8"  Name="types"  format="ascii">5 5 5 5 5 5 5 5 5 5 5 5 5 5 5 5 5 5 5 5 5 5 5 5 5 5 5 5 5 5 5 5 5 5 5 5 5 5 5 5 5 5 5 5 5 5 5 5 5 5 5 5 5 5 5 5 5 5 5 5 5 5 5 5 5 5 5 5 5 5 5 5 5 5 5 5 5 5 5 5 5 5 5 5 5 5 5 5 5 5 5 5 5 5 5 5 5 5 5 5 5 5 5 5 5 5 5 5 5 5 5 5 5 5 5 5 5 5 5 5 5 5 5 5 5 5 5 5 </DataArray>
</Cells>
<PointData  Vectors="f_16"> 
<DataArray  type="Float64"  Name="f_16"  NumberOfComponents="3" format="ascii">2.0501505292430035e-05 -4.1893128356289304e-09 0.0000000000000000e+00  -1.2136738580246736e-06 -7.8769086431044955e-10 0.0000000000000000e+00  1.0344582480684502e-06 -1.0258843594875365e-09 0.0000000000000000e+00  -8.2337278868584977e-06 -3.1692812809257631e-09 0.0000000000000000e+00  -2.8780464745698550e-06 6.3526995945456191e-10 0.0000000000000000e+00  -4.7737896099148030e-06 2.1143057269742034e-08 0.0000000000000000e+00  -5.3749256685889940e-06 1.5412601187246489e-08 0.0000000000000000e+00  -6.0256629051335747e-06 3.0092475846313596e-08 0.0000000000000000e+00  -1.5983431158979543e-06 4.4397265012704335e-08 0.0000000000000000e+00  6.5624703767433090e-01 -2.2008989322194188e-09 0.0000000000000000e+00  6.5732080836894879e-01 -7.6957357808987939e-05 0.0000000000000000e+00  6.5843842725275070e-01 2.1649428711296812e-05 0.0000000000000000e+00  6.5808262040223509e-01 -3.7656444029375124e-05 0.0000000000000000e+00  6.5855815872946588e-01 4.1950357888028772e-05 0.0000000000000000e+00  6.6030699399499682e-01 -1.9065216953822195e-04 0.0000000000000000e+00  6.7120276529994538e-01 -2.8967641974645027e-03 0.0000000000000000e+00  7.0384289489023300e-01 -5.0129425356585664e-03 0.0000000000000000e+00  7.4698065053776530e-01 -5.0017137472874139e-03 0.0000000000000000e+00  1.1249841604361839e+00 2.5884692722685835e-09 0.0000000000000000e+00  1.1262091454466856e+00 -8.3546755382498934e-04 0.0000000000000000e+00  1.1233063728915684e+00 -3.4782168216662414e-04 0.0000000000000000e+00  1.1262739785152047e+00 1.3748921963111665e-04 0.0000000000000000e+00  1.1247147007199778e+00 1.9931308658016142e-04 0.0000000000000000e+00  1.1234643721591351e+00 -3.5370930120205262e-04 0.0000000000000000e+00  1.1250710638466439e+00 -4.3538410177275987e-03 0.0000000000000000e+00  1.1252453736704422e+00 -1.0132505606399047e-02 0.0000000000000000e+00  1.1349612319356224e+00 -1.2019556236954582e-02 0.0000000000000000e+00  1.4062395867838813e+00 1.8529008348877691e-09 0.0000000000000000e+00  1.4055252787793002e+00 -2.7102999525108906e-04 0.0000000000000000e+00  1.4079270964056292e+00 -8.1696743141699299e-05 0.0000000000000000e+00  1.4049906879111311e+00 3.3799907593176854e-04 0.0000000000000000e+00  1.4052771453175927e+00 -7.1444243682988409e-05 0.0000000000000000e+00  1.4055994526416069e+00 -9.7567646893035622e-04 0.0000000000000000e+00  1.3993738668573934e+00 -2.4287234025339921e-03 0.0000000000000000e+00  1.3746203737501916e+00 -6.7639265719821101e-03 0.0000000000000000e+00  1.3382535351200697e+00 -9.2581364550063470e-03 0.0000000000000000e+00  1.4999819097395011e+00 2.4790630324268674e-10 0.0000000000000000e+00  1.5013947119074933e+00 -1.4851074060096957e-04 0.0000000000000000e+00  1.4999261668521719e+00 -1.6985959647712574e-04 0.0000000000000000e+00  1.4999439493831814e+00 -9.5649793796323559e-05 0.0000000000000000e+00  1.4952282659982588e+00 -1.5984834333859797e-05 0.0000000000000000e+00  1.4993311849104403e+00 1.4395867085291732e-04 0.0000000000000000e+00  1.4900341622297220e+00 2.6021596183874814e-04 0.0000000000000000e+00  1.4595918408951876e+00 2.8364481474570769e-04 0.0000000000000000e+00  1.4085879640228482e+00 6.9945668414849639e-06 0.0000000000000000e+00  1.4062362325331963e+00 -1.5352226916493777e-09 0.0000000000000000e+00  1.4054458157151308e+00 6.3356617363447630e-05 0.0000000000000000e+00  1.4070389727760637e+00 -2.9203999942934556e-04 0.0000000000000000e+00  1.4052879813885697e+00 -5.6173624717047882e-04 0.0000000000000000e+00  1.4047059881097494e+00 4.0846261811434845e-05 0.0000000000000000e+00  1.4033795549663841e+00 1.2094528675311667e-03 0.0000000000000000e+00  1.4006184166868800e+00 2.8471189082385842e-03 0.0000000000000000e+00  1.3744102827079072e+00 7.0058944642136106e-03 0.0000000000000000e+00  1.3374282948976481e+00 9.0197914580277712e-03 0.0000000000000000e+00  1.1249860612583726e+00 2.7192785489834092e-10 0.0000000000000000e+00  1.1259265032604744e+00 4.0422261603481201e-04 0.0000000000000000e+00  1.1243624029173831e+00 1.3468540500115656e-04 0.0000000000000000e+00  1.1243974838317110e+00 -3.0692180982369442e-04 0.0000000000000000e+00  1.1234018101667311e+00 -1.5456188519105899e-04 0.0000000000000000e+00  1.1234804609853646e+00 6.0122347447926752e-04 0.0000000000000000e+00  1.1230772101511419e+00 4.6688876368209719e-03 0.0000000000000000e+00  1.1260266993935542e+00 1.0519304516732440e-02 0.0000000000000000e+00  1.1340221729031796e+00 1.2239697252495876e-02 0.0000000000000000e+00  6.5624151169480127e-01 1.5235998653134534e-09 0.0000000000000000e+00  6.5605216550252676e-01 -3.0724754473864731e-05 0.0000000000000000e+00  6.5660992915487892e-01 -9.0394660814060334e-05 0.0000000000000000e+00  6.5617948751392297e-01 -3.6741872783439671e-06 0.0000000000000000e+00  6.5667483579150610e-01 -6.3190939065956814e-05 0.0000000000000000e+00  6.5791317775449065e-01 2.7936722339410393e-04 0.0000000000000000e+00  6.7140094434082553e-01 3.1004605817635290e-03 0.0000000000000000e+00  7.0223310278602902e-01 5.1240999396054707e-03 0.0000000000000000e+00  7.4832347838982261e-01 5.3560752372262587e-03 0.0000000000000000e+00  -7.0114530186609112e-06 -1.8979105437971011e-09 0.0000000000000000e+00  -7.2454208403615614e-06 -1.5988563451456501e-09 0.0000000000000000e+00  -4.6185970865642187e-06 5.1833450908241624e-10 0.0000000000000000e+00  -6.2651015685548025e-06 6.1875091582699446e-09 0.0000000000000000e+00  -2.2466433377958677e-06 1.9547040574201371e-08 0.0000000000000000e+00  -6.9359464436513175e-06 -2.2304579290933661e-08 0.0000000000000000e+00  -7.0568701273859284e-06 -1.0701779448156339e-08 0.0000000000000000e+00  6.4889950819841764e-07 2.4729340534147068e-08 0.0000000000000000e+00  -1.0312443568623881e-05 -1.0526513387929463e-07 0.0000000000000000e+00  </DataArray> 
</PointData> 
</Piece>
</UnstructuredGrid>
</VTKFile>