<?xml version="1.0"?>
<VTKFile type="UnstructuredGrid"  version="0.1"  >
<UnstructuredGrid>
<Piece  NumberOfPoints="81" NumberOfCells="128">
<Points>
<DataArray  type="Float64"  NumberOfComponents="3"  format="ascii">0 0 0  0.275 0 0  0.55 0 0  0.8250000000000001 0 0  1.1 0 0  1.375 0 0  1.65 0 0  1.925 0 0  2.2 0 0  0 0.05125 0  0.275 0.05125 0  0.55 0.05125 0  0.8250000000000001 0.05125 0  1.1 0.05125 0  1.375 0.05125 0  1.65 0.05125 0  1.925 0.05125 0  2.2 0.05125 0  0 0.1025 0  0.275 0.1025 0  0.55 0.1025 0  0.8250000000000001 0.1025 0  1.1 0.1025 0  1.375 0.1025 0  1.65 0.1025 0  1.925 0.1025 0  2.2 0.1025 0  0 0.15375 0  0.275 0.15375 0  0.55 0.15375 0  0.8250000000000001 0.15375 0  1.1 0.15375 0  1.375 0.15375 0  1.65 0.15375 0  1.925 0.15375 0  2.2 0.15375 0  0 0.205 0  0.275 0.205 0  0.55 0.205 0  0.8250000000000001 0.205 0  1.1 0.205 0  1.375 0.205 0  1.65 0.205 0  1.925 0.205 0  2.2 0.205 0  0 0.25625 0  0.275 0.25625 0  0.55 0.25625 0  0.8250000000000001 0.25625 0  1.1 0.25625 0  1.375 0.25625 0  1.65 0.25625 0  1.925 0.25625 0  2.2 0.25625 0  0 0.3075 0  0.275 0.3075 0  0.55 0.3075 0  0.8250000000000001 0.3075 0  1.1 0.3075 0  1.375 0.3075 0  1.65 0.3075 0  1.925 0.3075 0  2.2 0.3075 0  0 0.35875 0  0.275 0.35875 0  0.55 0.35875 0  0.8250000000000001 0.35875 0  1.1 0.35875 0  1.375 0.35875 0  1.65 0.35875 0  1.925 0.35875 0  2.2 0.35875 0  0 0.41 0  0.275 0.41 0  0.55 0.41 0  0.8250000000000001 0.41 0  1.1 0.41 0  1.375 0.41 0  1.65 0.41 0  1.925 0.41 0  2.2 0.41 0  </DataArray>
</Points>
<Cells>
<DataArray  type="UInt32"  Name="connectivity"  format="ascii">0 1 9  1 9 10  1 2 11  1 10 11  2 3 11  3 11 12  3 4 13  3 12 13  4 5 13  5 13 14  5 6 15  5 14 15  6 7 15  7 15 16  7 8 17  7 16 17  9 10 19  9 18 19  10 11 19  11 19 20  11 12 21  11 20 21  12 13 21  13 21 22  13 14 23  13 22 23  14 15 23  15 23 24  15 16 25  15 24 25  16 17 25  17 25 26  18 19 27  19 27 28  19 20 29  19 28 29  20 21 29  21 29 30  21 22 31  21 30 31  22 23 31  23 31 32  23 24 33  23 32 33  24 25 33  25 33 34  25 26 35  25 34 35  27 28 37  27 36 37  28 29 37  29 37 38  29 30 39  29 38 39  30 31 39  31 39 40  31 32 41  31 40 41  32 33 41  33 41 42  33 34 43  33 42 43  34 35 43  35 43 44  36 37 45  37 45 46  37 38 47  37 46 47  38 39 47  39 47 48  39 40 49  39 48 49  40 41 49  41 49 50  41 42 51  41 50 51  42 43 51  43 51 52  43 44 53  43 52 53  45 46 55  45 54 55  46 47 55  47 55 56  47 48 57  47 56 57  48 49 57  49 57 58  49 50 59  49 58 59  50 51 59  51 59 60  51 52 61  51 60 61  52 53 61  53 61 62  54 55 63  55 63 64  55 56 65  55 64 65  56 57 65  57 65 66  57 58 67  57 66 67  58 59 67  59 67 68  59 60 69  59 68 69  60 61 69  61 69 70  61 62 71  61 70 71  63 64 73  63 72 73  64 65 73  65 73 74  65 66 75  65 74 75  66 67 75  67 75 76  67 68 77  67 76 77  68 69 77  69 77 78  69 70 79  69 78 79  70 71 79  71 79 80  </DataArray>
<DataArray  type="UInt32"  Name="offsets"  format="ascii">3 6 9 12 15 18 21 24 27 30 33 36 39 42 45 48 51 54 57 60 63 66 69 72 75 78 81 84 87 90 93 96 99 102 105 108 111 114 117 120 123 126 129 132 135 138 141 144 147 150 153 156 159 162 165 168 171 174 177 180 183 186 189 192 195 198 201 204 207 210 213 216 219 222 225 228 231 234 237 240 243 246 249 252 255 258 261 264 267 270 273 276 279 282 285 288 291 294 297 300 303 306 309 312 315 318 321 324 327 330 333 336 339 342 345 348 351 354 357 360 363 366 369 372 375 378 381 384 </DataArray>
<DataArray  type="UInt8"  Name="types"  format="ascii">5 5 5 5 5 5 5 5 5 5 5 5 5 5 5 5 5 5 5 5 5 5 5 5 5 5 5 5 5 5 5 5 5 5 5 5 5 5 5 5 5 5 5 5 5 5 5 5 5 5 5 5 5 5 5 5 5 5 5 5 5 5 5 5 5 5 5 5 5 5 5 5 5 5 5 5 5 5 5 5 5 5 5 5 5 5 5 5 5 5 5 5 5 5 5 5 5 5 5 5 5 5 5 5 5 5 5 5 5 5 5 5 5 5 5 5 5 5 5 5 5 5 5 5 5 5 5 5 </DataArray>
</Cells>
<PointData  Vectors="f_16"> 
<DataArray  type="Float64"  Name="f_16"  NumberOfComponents="3" format="ascii">2.0489659888726043e-05 -4.4448042843209767e-09 0.0000000000000000e+00  -1.2015532406327688e-06 -6.6099037485445507e-14 0.0000000000000000e+00  1.0433664623428287e-06 -9.6713138910268020e-10 0.0000000000000000e+00  -8.2923283718377722e-06 9.1222440417751328e-10 0.0000000000000000e+00  -2.9399328341266593e-06 1.1661520355005682e-10 0.0000000000000000e+00  -4.7738889961800653e-06 -8.2613583492636196e-10 0.0000000000000000e+00  -5.1846962777383404e-06 -5.7192395544077091e-10 0.0000000000000000e+00  -5.9217810215386641e-06 -5.9190429453903499e-10 0.0000000000000000e+00  -1.2393601004124350e-06 1.8970885511660683e-10 0.0000000000000000e+00  6.5624702184451311e-01 -2.9740649986555015e-10 0.0000000000000000e+00  6.5714197993342194e-01 -1.3039981808895401e-04 0.0000000000000000e+00  6.5835812966051743e-01 1.3499412006466482e-04 0.0000000000000000e+00  6.5821254233113413e-01 -3.2302901338736202e-05 0.0000000000000000e+00  6.5875218291650761e-01 -1.6679912025223380e-05 0.0000000000000000e+00  6.5863057949195769e-01 3.6728664344775181e-05 0.0000000000000000e+00  6.5834527793944975e-01 2.9666950493974779e-06 0.0000000000000000e+00  6.5749292859170749e-01 2.3504353513692492e-05 0.0000000000000000e+00  6.5745069544628532e-01 -2.9145795217514037e-05 0.0000000000000000e+00  1.1249841009804387e+00 1.1300363286527887e-09 0.0000000000000000e+00  1.1255570511746418e+00 -6.2382533262495953e-04 0.0000000000000000e+00  1.1238800149093373e+00 -1.5179896706223894e-04 0.0000000000000000e+00  1.1264632047380949e+00 -1.2714109595463079e-04 0.0000000000000000e+00  1.1255990551811033e+00 8.6604530946204455e-06 0.0000000000000000e+00  1.1252654958620729e+00 1.7244450877062158e-04 0.0000000000000000e+00  1.1252002277801585e+00 1.5694653987130414e-04 0.0000000000000000e+00  1.1246236484925152e+00 2.0656375172937666e-04 0.0000000000000000e+00  1.1241219592501308e+00 1.6069177860248562e-04 0.0000000000000000e+00  1.4062394800159443e+00 4.8599927514570411e-11 0.0000000000000000e+00  1.4055928046664870e+00 -1.6424935924736828e-04 0.0000000000000000e+00  1.4068415924536306e+00 -1.3823745359701746e-04 0.0000000000000000e+00  1.4046948798788621e+00 -1.7923409357365380e-04 0.0000000000000000e+00  1.4071850327162763e+00 -1.8676913821492354e-04 0.0000000000000000e+00  1.4061344770819797e+00 9.8816600602477227e-05 0.0000000000000000e+00  1.4057800531797728e+00 1.7364175964054970e-04 0.0000000000000000e+00  1.4055955313627129e+00 2.1247095238151448e-04 0.0000000000000000e+00  1.4055286735832884e+00 1.4392285097205532e-04 0.0000000000000000e+00  1.4999818422365858e+00 8.8463009410440698e-10 0.0000000000000000e+00  1.5000924103204676e+00 -1.5721942177786399e-04 0.0000000000000000e+00  1.4988907553339430e+00 -1.8344503004374675e-04 0.0000000000000000e+00  1.4995333534478521e+00 -1.2490254697100492e-04 0.0000000000000000e+00  1.4973417739679367e+00 -6.2846270847295602e-05 0.0000000000000000e+00  1.4993763741082509e+00 8.6547868995602808e-05 0.0000000000000000e+00  1.4985293900017838e+00 2.8851515958431401e-04 0.0000000000000000e+00  1.4980553272942447e+00 4.6720215299981112e-04 0.0000000000000000e+00  1.4981470994725472e+00 3.5138116459780539e-04 0.0000000000000000e+00  1.4062361152954455e+00 5.0093459125430765e-10 0.0000000000000000e+00  1.4055002350981869e+00 -5.4333284323405541e-05 0.0000000000000000e+00  1.4059375983141773e+00 -2.4537401684876400e-04 0.0000000000000000e+00  1.4049270305918240e+00 -9.3026282617240835e-05 0.0000000000000000e+00  1.4064555086134700e+00 7.2922857204272426e-05 0.0000000000000000e+00  1.4037115057377927e+00 6.1665937602818749e-05 0.0000000000000000e+00  1.4066828349150329e+00 2.0351466471509800e-04 0.0000000000000000e+00  1.4051590773774030e+00 3.6620483186315970e-04 0.0000000000000000e+00  1.4050710579974481e+00 3.5945991950890978e-04 0.0000000000000000e+00  1.1249860145181600e+00 -2.2064975655208911e-10 0.0000000000000000e+00  1.1252881554583039e+00 1.9459838066095023e-04 0.0000000000000000e+00  1.1248884142741953e+00 -7.7552181336202800e-05 0.0000000000000000e+00  1.1244900396029374e+00 -7.7126108889219574e-05 0.0000000000000000e+00  1.1240351919116032e+00 -1.9351864141558652e-05 0.0000000000000000e+00  1.1248102853041437e+00 2.2526670935575870e-06 0.0000000000000000e+00  1.1226144543940357e+00 2.1024424237015726e-04 0.0000000000000000e+00  1.1250946988963362e+00 4.4921761101331608e-04 0.0000000000000000e+00  1.1241126615470436e+00 5.1084080022580026e-04 0.0000000000000000e+00  6.5624143923971612e-01 -3.3344779170818121e-10 0.0000000000000000e+00  6.5589676642269545e-01 2.4706505724394474e-05 0.0000000000000000e+00  6.5652612462813797e-01 -2.0579589128780050e-04 0.0000000000000000e+00  6.5620288325964493e-01 -2.0603046374598002e-05 0.0000000000000000e+00  6.5663715212859575e-01 -2.2575545574920303e-05 0.0000000000000000e+00  6.5573094193770887e-01 3.9258727272420424e-05 0.0000000000000000e+00  6.5791170148810107e-01 2.2137797216617678e-04 0.0000000000000000e+00  6.5579014321259588e-01 1.8164262701401320e-04 0.0000000000000000e+00  6.5985898195661996e-01 5.6079908477350740e-04 0.0000000000000000e+00  -7.0283812641372618e-06 -7.8647800956614510e-10 0.0000000000000000e+00  -7.2268092982151197e-06 -4.9803233241276945e-10 0.0000000000000000e+00  -4.6032377259781314e-06 -1.7219059254496319e-10 0.0000000000000000e+00  -6.2737501427052580e-06 8.6372328749959365e-10 0.0000000000000000e+00  -2.2749894600428816e-06 1.0049054283942901e-09 0.0000000000000000e+00  -6.9286180468819744e-06 -1.4068375854077531e-09 0.0000000000000000e+00  -7.0870318055952873e-06 -3.2033574753066806e-10 0.0000000000000000e+00  4.7874368334078023e-07 3.9944809051182428e-10 0.0000000000000000e+00  -1.0284234869382566e-05 -4.5498289366900273e-09 0.0000000000000000e+00  </DataArray> 
</PointData> 
</Piece>
</UnstructuredGrid>
</VTKFile>