<?xml version="1.0"?>
<VTKFile type="UnstructuredGrid"  version="0.1"  >
<UnstructuredGrid>
<Piece  NumberOfPoints="81" NumberOfCells="128">
<Points>
<DataArray  type="Float64"  NumberOfComponents="3"  format="ascii">0 0 0  0.275 0 0  0.55 0 0  0.8250000000000001 0 0  1.1 0 0  1.375 0 0  1.65 0 0  1.925 0 0  2.2 0 0  0 0.05125 0  0.275 0.05125 0  0.55 0.05125 0  0.8250000000000001 0.05125 0  1.1 0.05125 0  1.375 0.05125 0  1.65 0.05125 0  1.925 0.05125 0  2.2 0.05125 0  0 0.1025 0  0.275 0.1025 0  0.55 0.1025 0  0.8250000000000001 0.1025 0  1.1 0.1025 0  1.375 0.1025 0  1.65 0.1025 0  1.925 0.1025 0  2.2 0.1025 0  0 0.15375 0  0.275 0.15375 0  0.55 0.15375 0  0.8250000000000001 0.15375 0  1.1 0.15375 0  1.375 0.15375 0  1.65 0.15375 0  1.925 0.15375 0  2.2 0.15375 0  0 0.205 0  0.275 0.205 0  0.55 0.205 0  0.8250000000000001 0.205 0  1.1 0.205 0  1.375 0.205 0  1.65 0.205 0  1.925 0.205 0  2.2 0.205 0  0 0.25625 0  0.275 0.25625 0  0.55 0.25625 0  0.8250000000000001 0.25625 0  1.1 0.25625 0  1.375 0.25625 0  1.65 0.25625 0  1.925 0.25625 0  2.2 0.25625 0  0 0.3075 0  0.275 0.3075 0  0.55 0.3075 0  0.8250000000000001 0.3075 0  1.1 0.3075 0  1.375 0.3075 0  1.65 0.3075 0  1.925 0.3075 0  2.2 0.3075 0  0 0.35875 0  0.275 0.35875 0  0.55 0.35875 0  0.8250000000000001 0.35875 0  1.1 0.35875 0  1.375 0.35875 0  1.65 0.35875 0  1.925 0.35875 0  2.2 0.35875 0  0 0.41 0  0.275 0.41 0  0.55 0.41 0  0.8250000000000001 0.41 0  1.1 0.41 0  1.375 0.41 0  1.65 0.41 0  1.925 0.41 0  2.2 0.41 0  </DataArray>
</Points>
<Cells>
<DataArray  type="UInt32"  Name="connectivity"  format="ascii">0 1 9  1 9 10  1 2 11  1 10 11  2 3 11  3 11 12  3 4 13  3 12 13  4 5 13  5 13 14  5 6 15  5 14 15  6 7 15  7 15 16  7 8 17  7 16 17  9 10 19  9 18 19  10 11 19  11 19 20  11 12 21  11 20 21  12 13 21  13 21 22  13 14 23  13 22 23  14 15 23  15 23 24  15 16 25  15 24 25  16 17 25  17 25 26  18 19 27  19 27 28  19 20 29  19 28 29  20 21 29  21 29 30  21 22 31  21 30 31  22 23 31  23 31 32  23 24 33  23 32 33  24 25 33  25 33 34  25 26 35  25 34 35  27 28 37  27 36 37  28 29 37  29 37 38  29 30 39  29 38 39  30 31 39  31 39 40  31 32 41  31 40 41  32 33 41  33 41 42  33 34 43  33 42 43  34 35 43  35 43 44  36 37 45  37 45 46  37 38 47  37 46 47  38 39 47  39 47 48  39 40 49  39 48 49  40 41 49  41 49 50  41 42 51  41 50 51  42 43 51  43 51 52  43 44 53  43 52 53  45 46 55  45 54 55  46 47 55  47 55 56  47 48 57  47 56 57  48 49 57  49 57 58  49 50 59  49 58 59  50 51 59  51 59 60  51 52 61  51 60 61  52 53 61  53 61 62  54 55 63  55 63 64  55 56 65  55 64 65  56 57 65  57 65 66  57 58 67  57 66 67  58 59 67  59 67 68  59 60 69  59 68 69  60 61 69  61 69 70  61 62 71  61 70 71  63 64 73  63 72 73  64 65 73  65 73 74  65 66 75  65 74 75  66 67 75  67 75 76  67 68 77  67 76 77  68 69 77  69 77 78  69 70 79  69 78 79  70 71 79  71 79 80  </DataArray>
<DataArray  type="UInt32"  Name="offsets"  format="ascii">3 6 9 12 15 18 21 24 27 30 33 36 39 42 45 48 51 54 57 60 63 66 69 72 75 78 81 84 87 90 93 96 99 102 105 108 111 114 117 120 123 126 129 132 135 138 141 144 147 150 153 156 159 162 165 168 171 174 177 180 183 186 189 192 195 198 201 204 207 210 213 216 219 222 225 228 231 234 237 240 243 246 249 252 255 258 261 264 267 270 273 276 279 282 285 288 291 294 297 300 303 306 309 312 315 318 321 324 327 330 333 336 339 342 345 348 351 354 357 360 363 366 369 372 375 378 381 384 </DataArray>
<DataArray  type="UInt8"  Name="types"  format="ascii">5 5 5 5 5 5 5 5 5 5 5 5 5 5 5 5 5 5 5 5 5 5 5 5 5 5 5 5 5 5 5 5 5 5 5 5 5 5 5 5 5 5 5 5 5 5 5 5 5 5 5 5 5 5 5 5 5 5 5 5 5 5 5 5 5 5 5 5 5 5 5 5 5 5 5 5 5 5 5 5 5 5 5 5 5 5 5 5 5 5 5 5 5 5 5 5 5 5 5 5 5 5 5 5 5 5 5 5 5 5 5 5 5 5 5 5 5 5 5 5 5 5 5 5 5 5 5 5 </DataArray>
</Cells>
<PointData  Vectors="f_16"> 
<DataArray  type="Float64"  Name="f_16"  NumberOfComponents="3" format="ascii">2.0487455116223390e-05 -4.2194250318621504e-09 0.0000000000000000e+00  -1.2011838217303399e-06 -1.3239368095040069e-10 0.0000000000000000e+00  1.0463900192719877e-06 -1.1930420795104913e-09 0.0000000000000000e+00  -8.2939707790082803e-06 1.5065600053446607e-09 0.0000000000000000e+00  -2.9456875333459723e-06 1.4377129242574028e-10 0.0000000000000000e+00  -4.7740891435677804e-06 -1.5651565876951585e-09 0.0000000000000000e+00  -5.1792726829270211e-06 -9.1009126801122979e-11 0.0000000000000000e+00  -5.9217139697273630e-06 1.3643893254469446e-09 0.0000000000000000e+00  -1.2406651848119031e-06 9.0554134515458129e-10 0.0000000000000000e+00  6.5624702080030817e-01 2.6428638891054050e-10 0.0000000000000000e+00  6.5719935718298583e-01 -1.2544482380056796e-04 0.0000000000000000e+00  6.5845382913690043e-01 1.3926601409233600e-04 0.0000000000000000e+00  6.5825978167036325e-01 -1.9908706790116444e-05 0.0000000000000000e+00  6.5900100711458776e-01 -4.1107074949485296e-05 0.0000000000000000e+00  6.5871101721359815e-01 5.0893407503259410e-05 0.0000000000000000e+00  6.5855807449582349e-01 1.1484985942743149e-05 0.0000000000000000e+00  6.5745437045380273e-01 -2.1240161837702121e-05 0.0000000000000000e+00  6.5812198113617881e-01 -3.1786435502534777e-04 0.0000000000000000e+00  1.1249840976746885e+00 9.5937508878906083e-10 0.0000000000000000e+00  1.1256508530083402e+00 -6.1361872011975085e-04 0.0000000000000000e+00  1.1238773038159551e+00 -1.4014042157755465e-04 0.0000000000000000e+00  1.1265670628993900e+00 -1.5624823136996323e-04 0.0000000000000000e+00  1.1257069500098054e+00 -1.8228425200335006e-05 0.0000000000000000e+00  1.1254865584319262e+00 2.2758384214263336e-04 0.0000000000000000e+00  1.1251344482793622e+00 2.1127289886502606e-04 0.0000000000000000e+00  1.1246264362823772e+00 1.0162078393600603e-04 0.0000000000000000e+00  1.1240709334107082e+00 -4.1401533406883171e-06 0.0000000000000000e+00  1.4062394781191410e+00 -3.0772119950597203e-10 0.0000000000000000e+00  1.4055635198102068e+00 -1.3840246632091028e-04 0.0000000000000000e+00  1.4066996378412893e+00 -1.4690786322962967e-04 0.0000000000000000e+00  1.4047247916459913e+00 -2.3120214028560959e-04 0.0000000000000000e+00  1.4074525490210388e+00 -1.8931668024219463e-04 0.0000000000000000e+00  1.4060213163558977e+00 1.7148698352191172e-04 0.0000000000000000e+00  1.4056094674864810e+00 2.2033167579800712e-04 0.0000000000000000e+00  1.4056446890606067e+00 1.4128591879608538e-04 0.0000000000000000e+00  1.4053488315501295e+00 5.6318519628089958e-05 0.0000000000000000e+00  1.4999818376805170e+00 9.2510520333073015e-10 0.0000000000000000e+00  1.5000561419229466e+00 -1.5528299813004375e-04 0.0000000000000000e+00  1.4986832631038691e+00 -1.8081580218601382e-04 0.0000000000000000e+00  1.4996738039990765e+00 -1.2391558759830161e-04 0.0000000000000000e+00  1.4975630274688991e+00 -5.7052286878329782e-05 0.0000000000000000e+00  1.4990670120174898e+00 9.9695132082910391e-05 0.0000000000000000e+00  1.4983438104237095e+00 3.0108270411570746e-04 0.0000000000000000e+00  1.4982665971330575e+00 4.7013527795008921e-04 0.0000000000000000e+00  1.4978580541131141e+00 3.4557841402849636e-04 0.0000000000000000e+00  1.4062361131368128e+00 8.7520968349140750e-10 0.0000000000000000e+00  1.4054735225721247e+00 -7.8110386665050248e-05 0.0000000000000000e+00  1.4058014609513565e+00 -2.3368121568978376e-04 0.0000000000000000e+00  1.4049601648196854e+00 -3.6067095556023820e-05 0.0000000000000000e+00  1.4067319096242954e+00 8.6146950683944272e-05 0.0000000000000000e+00  1.4036425188352220e+00 1.0183180011410724e-05 0.0000000000000000e+00  1.4065851958017588e+00 1.8344582677062089e-04 0.0000000000000000e+00  1.4052971049931751e+00 4.4229663668788932e-04 0.0000000000000000e+00  1.4049836565641429e+00 4.2650965564324309e-04 0.0000000000000000e+00  1.1249860111417036e+00 -2.8676424775941603e-11 0.0000000000000000e+00  1.1253797603702709e+00 1.8594052520526074e-04 0.0000000000000000e+00  1.1248936153184574e+00 -8.5964583773365279e-05 0.0000000000000000e+00  1.1246063239053192e+00 -4.4800232262763023e-05 0.0000000000000000e+00  1.1241767740694786e+00 1.6031609856604371e-05 0.0000000000000000e+00  1.1250999772544295e+00 -3.8293673779131217e-05 0.0000000000000000e+00  1.1226789505069825e+00 1.6827612682702875e-04 0.0000000000000000e+00  1.1252599538040915e+00 5.5509889309257555e-04 0.0000000000000000e+00  1.1242308359214983e+00 6.5995080616167612e-04 0.0000000000000000e+00  6.5624143786743883e-01 -8.5364391718727578e-10 0.0000000000000000e+00  6.5595392413777820e-01 1.9999479978552983e-05 0.0000000000000000e+00  6.5662607171543175e-01 -2.0907782121084634e-04 0.0000000000000000e+00  6.5626649228052147e-01 -3.1021226157499825e-05 0.0000000000000000e+00  6.5692411553971342e-01 4.8462472879225040e-06 0.0000000000000000e+00  6.5589326065601361e-01 2.9394131209721704e-05 0.0000000000000000e+00  6.5824730463821923e-01 2.1650432205898670e-04 0.0000000000000000e+00  6.5589782017495435e-01 2.2466263034091793e-04 0.0000000000000000e+00  6.6062592598225289e-01 8.3384267170435978e-04 0.0000000000000000e+00  -7.0307627263754060e-06 -1.1052793632733172e-09 0.0000000000000000e+00  -7.2266102396062994e-06 -3.9111501866685931e-10 0.0000000000000000e+00  -4.5998126966688671e-06 -5.2696625803030654e-11 0.0000000000000000e+00  -6.2752356307550083e-06 1.7121842344165164e-10 0.0000000000000000e+00  -2.2801097436900141e-06 9.9228091049086193e-10 0.0000000000000000e+00  -6.9294792282791659e-06 -8.3884876102801491e-10 0.0000000000000000e+00  -7.0809692577584606e-06 -5.5895880737490208e-10 0.0000000000000000e+00  4.7915261809502775e-07 -7.0690906811582772e-10 0.0000000000000000e+00  -1.0289705490680714e-05 -5.7083662317958250e-09 0.0000000000000000e+00  </DataArray> 
</PointData> 
</Piece>
</UnstructuredGrid>
</VTKFile>