<?xml version="1.0"?>
<VTKFile type="UnstructuredGrid"  version="0.1"  >
<UnstructuredGrid>
<Piece  NumberOfPoints="81" NumberOfCells="128">
<Points>
<DataArray  type="Float64"  NumberOfComponents="3"  format="ascii">0 0 0  0.275 0 0  0.55 0 0  0.8250000000000001 0 0  1.1 0 0  1.375 0 0  1.65 0 0  1.925 0 0  2.2 0 0  0 0.05125 0  0.275 0.05125 0  0.55 0.05125 0  0.8250000000000001 0.05125 0  1.1 0.05125 0  1.375 0.05125 0  1.65 0.05125 0  1.925 0.05125 0  2.2 0.05125 0  0 0.1025 0  0.275 0.1025 0  0.55 0.1025 0  0.8250000000000001 0.1025 0  1.1 0.1025 0  1.375 0.1025 0  1.65 0.1025 0  1.925 0.1025 0  2.2 0.1025 0  0 0.15375 0  0.275 0.15375 0  0.55 0.15375 0  0.8250000000000001 0.15375 0  1.1 0.15375 0  1.375 0.15375 0  1.65 0.15375 0  1.925 0.15375 0  2.2 0.15375 0  0 0.205 0  0.275 0.205 0  0.55 0.205 0  0.8250000000000001 0.205 0  1.1 0.205 0  1.375 0.205 0  1.65 0.205 0  1.925 0.205 0  2.2 0.205 0  0 0.25625 0  0.275 0.25625 0  0.55 0.25625 0  0.8250000000000001 0.25625 0  1.1 0.25625 0  1.375 0.25625 0  1.65 0.25625 0  1.925 0.25625 0  2.2 0.25625 0  0 0.3075 0  0.275 0.3075 0  0.55 0.3075 0  0.8250000000000001 0.3075 0  1.1 0.3075 0  1.375 0.3075 0  1.65 0.3075 0  1.925 0.3075 0  2.2 0.3075 0  0 0.35875 0  0.275 0.35875 0  0.55 0.35875 0  0.8250000000000001 0.35875 0  1.1 0.35875 0  1.375 0.35875 0  1.65 0.35875 0  1.925 0.35875 0  2.2 0.35875 0  0 0.41 0  0.275 0.41 0  0.55 0.41 0  0.8250000000000001 0.41 0  1.1 0.41 0  1.375 0.41 0  1.65 0.41 0  1.925 0.41 0  2.2 0.41 0  </DataArray>
</Points>
<Cells>
<DataArray  type="UInt32"  Name="connectivity"  format="ascii">0 1 9  1 9 10  1 2 11  1 10 11  2 3 11  3 11 12  3 4 13  3 12 13  4 5 13  5 13 14  5 6 15  5 14 15  6 7 15  7 15 16  7 8 17  7 16 17  9 10 19  9 18 19  10 11 19  11 19 20  11 12 21  11 20 21  12 13 21  13 21 22  13 14 23  13 22 23  14 15 23  15 23 24  15 16 25  15 24 25  16 17 25  17 25 26  18 19 27  19 27 28  19 20 29  19 28 29  20 21 29  21 29 30  21 22 31  21 30 31  22 23 31  23 31 32  23 24 33  23 32 33  24 25 33  25 33 34  25 26 35  25 34 35  27 28 37  27 36 37  28 29 37  29 37 38  29 30 39  29 38 39  30 31 39  31 39 40  31 32 41  31 40 41  32 33 41  33 41 42  33 34 43  33 42 43  34 35 43  35 43 44  36 37 45  37 45 46  37 38 47  37 46 47  38 39 47  39 47 48  39 40 49  39 48 49  40 41 49  41 49 50  41 42 51  41 50 51  42 43 51  43 51 52  43 44 53  43 52 53  45 46 55  45 54 55  46 47 55  47 55 56  47 48 57  47 56 57  48 49 57  49 57 58  49 50 59  49 58 59  50 51 59  51 59 60  51 52 61  51 60 61  52 53 61  53 61 62  54 55 63  55 63 64  55 56 65  55 64 65  56 57 65  57 65 66  57 58 67  57 66 67  58 59 67  59 67 68  59 60 69  59 68 69  60 61 69  61 69 70  61 62 71  61 70 71  63 64 73  63 72 73  64 65 73  65 73 74  65 66 75  65 74 75  66 67 75  67 75 76  67 68 77  67 76 77  68 69 77  69 77 78  69 70 79  69 78 79  70 71 79  71 79 80  </DataArray>
<DataArray  type="UInt32"  Name="offsets"  format="ascii">3 6 9 12 15 18 21 24 27 30 33 36 39 42 45 48 51 54 57 60 63 66 69 72 75 78 81 84 87 90 93 96 99 102 105 108 111 114 117 120 123 126 129 132 135 138 141 144 147 150 153 156 159 162 165 168 171 174 177 180 183 186 189 192 195 198 201 204 207 210 213 216 219 222 225 228 231 234 237 240 243 246 249 252 255 258 261 264 267 270 273 276 279 282 285 288 291 294 297 300 303 306 309 312 315 318 321 324 327 330 333 336 339 342 345 348 351 354 357 360 363 366 369 372 375 378 381 384 </DataArray>
<DataArray  type="UInt8"  Name="types"  format="ascii">5 5 5 5 5 5 5 5 5 5 5 5 5 5 5 5 5 5 5 5 5 5 5 5 5 5 5 5 5 5 5 5 5 5 5 5 5 5 5 5 5 5 5 5 5 5 5 5 5 5 5 5 5 5 5 5 5 5 5 5 5 5 5 5 5 5 5 5 5 5 5 5 5 5 5 5 5 5 5 5 5 5 5 5 5 5 5 5 5 5 5 5 5 5 5 5 5 5 5 5 5 5 5 5 5 5 5 5 5 5 5 5 5 5 5 5 5 5 5 5 5 5 5 5 5 5 5 5 </DataArray>
</Cells>
<PointData  Vectors="f_16"> 
<DataArray  type="Float64"  Name="f_16"  NumberOfComponents="3" format="ascii">2.0489440347532831e-05 -4.3850081985087507e-09 0.0000000000000000e+00  -1.2012755293513254e-06 -3.6628380402583688e-11 0.0000000000000000e+00  1.0440344746830342e-06 -1.0102496712176811e-09 0.0000000000000000e+00  -8.2928008458448426e-06 1.0574261832902849e-09 0.0000000000000000e+00  -2.9409355403141631e-06 1.0036317368056030e-11 0.0000000000000000e+00  -4.7734788996712540e-06 -9.0677845476871419e-10 0.0000000000000000e+00  -5.1841536033695171e-06 -3.7026062241261478e-10 0.0000000000000000e+00  -5.9225013019016090e-06 -3.5049111179631284e-10 0.0000000000000000e+00  -1.2401745516055946e-06 2.0570239379625515e-10 0.0000000000000000e+00  6.5624702195495499e-01 -2.2144884659309821e-10 0.0000000000000000e+00  6.5712374511644023e-01 -1.2770086294604515e-04 0.0000000000000000e+00  6.5836983033959673e-01 1.3447213174287384e-04 0.0000000000000000e+00  6.5820482821274595e-01 -3.3113347556572152e-05 0.0000000000000000e+00  6.5876184889870038e-01 -2.1197459528954653e-05 0.0000000000000000e+00  6.5862610384185249e-01 3.7874013049334071e-05 0.0000000000000000e+00  6.5834222090069994e-01 2.5150180284972751e-06 0.0000000000000000e+00  6.5749579042397666e-01 2.8991122550767993e-05 0.0000000000000000e+00  6.5749856921986538e-01 -4.4366385871775289e-05 0.0000000000000000e+00  1.1249841006800105e+00 9.6857939852329400e-10 0.0000000000000000e+00  1.1255486735111342e+00 -6.1887847962421004e-04 0.0000000000000000e+00  1.1238734486867537e+00 -1.5281645441465012e-04 0.0000000000000000e+00  1.1264553908425210e+00 -1.3693888915426093e-04 0.0000000000000000e+00  1.1256142502170443e+00 9.1263880800510680e-06 0.0000000000000000e+00  1.1252586127219193e+00 1.8918318601382890e-04 0.0000000000000000e+00  1.1251856953223329e+00 1.5050428349806872e-04 0.0000000000000000e+00  1.1246313214645760e+00 2.1110420529457563e-04 0.0000000000000000e+00  1.1241526812326386e+00 1.4519559325654516e-04 0.0000000000000000e+00  1.4062394800980373e+00 -1.4223258506892578e-10 0.0000000000000000e+00  1.4055767102530954e+00 -1.5974051000350149e-04 0.0000000000000000e+00  1.4068225429277057e+00 -1.4444716590470246e-04 0.0000000000000000e+00  1.4047350006330688e+00 -1.8988577488571193e-04 0.0000000000000000e+00  1.4072382327851050e+00 -1.7767189317106910e-04 0.0000000000000000e+00  1.4061089294819573e+00 1.0751172046629924e-04 0.0000000000000000e+00  1.4057473433610015e+00 1.5808556042940352e-04 0.0000000000000000e+00  1.4056619405184780e+00 2.1020771659763140e-04 0.0000000000000000e+00  1.4055632919016059e+00 1.3576222240054659e-04 0.0000000000000000e+00  1.4999818416424187e+00 8.8526980955663095e-10 0.0000000000000000e+00  1.5000557662556231e+00 -1.5737154221082464e-04 0.0000000000000000e+00  1.4988730652147497e+00 -1.8349083746027557e-04 0.0000000000000000e+00  1.4996097723932800e+00 -1.2621791906790281e-04 0.0000000000000000e+00  1.4973859952093027e+00 -6.5189843160816315e-05 0.0000000000000000e+00  1.4993057425442515e+00 8.4927464291069860e-05 0.0000000000000000e+00  1.4985060364291991e+00 2.8520880394466953e-04 0.0000000000000000e+00  1.4981448891298546e+00 4.6223730403712620e-04 0.0000000000000000e+00  1.4981770913007508e+00 3.4686177499360468e-04 0.0000000000000000e+00  1.4062361153168694e+00 6.9949204156359565e-10 0.0000000000000000e+00  1.4054842029831114e+00 -5.9021659968514134e-05 0.0000000000000000e+00  1.4059198755506879e+00 -2.3871889436184303e-04 0.0000000000000000e+00  1.4049642597804428e+00 -8.4223507356750968e-05 0.0000000000000000e+00  1.4065027019690215e+00 5.9922318611394429e-05 0.0000000000000000e+00  1.4036790095385059e+00 4.8615996478781944e-05 0.0000000000000000e+00  1.4066362542946813e+00 2.1199241850763294e-04 0.0000000000000000e+00  1.4051991582986354e+00 3.5997104269548403e-04 0.0000000000000000e+00  1.4050688365037858e+00 3.5973099601361300e-04 0.0000000000000000e+00  1.1249860140508232e+00 -2.7018004527971732e-11 0.0000000000000000e+00  1.1252795406459399e+00 1.8940976168204922e-04 0.0000000000000000e+00  1.1248807889549497e+00 -7.6919927702259495e-05 0.0000000000000000e+00  1.1244800276571174e+00 -6.8515072387415266e-05 0.0000000000000000e+00  1.1240419031636426e+00 -2.2161552117429710e-05 0.0000000000000000e+00  1.1247881593114895e+00 -1.7424170118285660e-05 0.0000000000000000e+00  1.1225711081533414e+00 2.1207913751417943e-04 0.0000000000000000e+00  1.1250562564871318e+00 4.3968206534432440e-04 0.0000000000000000e+00  1.1240741924485211e+00 5.2110599264196939e-04 0.0000000000000000e+00  6.5624143933497214e-01 -3.8665477066850964e-10 0.0000000000000000e+00  6.5587870211893839e-01 2.1955335529461880e-05 0.0000000000000000e+00  6.5653612732133437e-01 -2.0543471211867040e-04 0.0000000000000000e+00  6.5619107763214324e-01 -2.0156357846967744e-05 0.0000000000000000e+00  6.5663826977602346e-01 -1.9074400283829331e-05 0.0000000000000000e+00  6.5570872369614275e-01 3.6944104809779634e-05 0.0000000000000000e+00  6.5787666457454530e-01 2.2010605422236073e-04 0.0000000000000000e+00  6.5574476970135820e-01 1.7466617997548970e-04 0.0000000000000000e+00  6.5984291213586566e-01 5.7475417070109716e-04 0.0000000000000000e+00  -7.0286421832416028e-06 -8.6779237021829976e-10 0.0000000000000000e+00  -7.2265491134622588e-06 -4.8302466532477484e-10 0.0000000000000000e+00  -4.6026253602125361e-06 -1.9425438535311228e-10 0.0000000000000000e+00  -6.2742408721768817e-06 7.4078036475142506e-10 0.0000000000000000e+00  -2.2760653092974936e-06 1.1192455267666403e-09 0.0000000000000000e+00  -6.9280943615681931e-06 -1.2691070705832129e-09 0.0000000000000000e+00  -7.0861972970915827e-06 -4.5652509626752002e-10 0.0000000000000000e+00  4.7808963653988834e-07 2.2117559323838088e-10 0.0000000000000000e+00  -1.0284735276790186e-05 -4.5694880241209534e-09 0.0000000000000000e+00  </DataArray> 
</PointData> 
</Piece>
</UnstructuredGrid>
</VTKFile>