<?xml version="1.0"?>
<VTKFile type="UnstructuredGrid"  version="0.1"  >
<UnstructuredGrid>
<Piece  NumberOfPoints="81" NumberOfCells="128">
<Points>
<DataArray  type="Float64"  NumberOfComponents="3"  format="ascii">0 0 0  0.275 0 0  0.55 0 0  0.8250000000000001 0 0  1.1 0 0  1.375 0 0  1.65 0 0  1.925 0 0  2.2 0 0  0 0.05125 0  0.275 0.05125 0  0.55 0.05125 0  0.8250000000000001 0.05125 0  1.1 0.05125 0  1.375 0.05125 0  1.65 0.05125 0  1.925 0.05125 0  2.2 0.05125 0  0 0.1025 0  0.275 0.1025 0  0.55 0.1025 0  0.8250000000000001 0.1025 0  1.1 0.1025 0  1.375 0.1025 0  1.65 0.1025 0  1.925 0.1025 0  2.2 0.1025 0  0 0.15375 0  0.275 0.15375 0  0.55 0.15375 0  0.8250000000000001 0.15375 0  1.1 0.15375 0  1.375 0.15375 0  1.65 0.15375 0  1.925 0.15375 0  2.2 0.15375 0  0 0.205 0  0.275 0.205 0  0.55 0.205 0  0.8250000000000001 0.205 0  1.1 0.205 0  1.375 0.205 0  1.65 0.205 0  1.925 0.205 0  2.2 0.205 0  0 0.25625 0  0.275 0.25625 0  0.55 0.25625 0  0.8250000000000001 0.25625 0  1.1 0.25625 0  1.375 0.25625 0  1.65 0.25625 0  1.925 0.25625 0  2.2 0.25625 0  0 0.3075 0  0.275 0.3075 0  0.55 0.3075 0  0.8250000000000001 0.3075 0  1.1 0.3075 0  1.375 0.3075 0  1.65 0.3075 0  1.925 0.3075 0  2.2 0.3075 0  0 0.35875 0  0.275 0.35875 0  0.55 0.35875 0  0.8250000000000001 0.35875 0  1.1 0.35875 0  1.375 0.35875 0  1.65 0.35875 0  1.925 0.35875 0  2.2 0.35875 0  0 0.41 0  0.275 0.41 0  0.55 0.41 0  0.8250000000000001 0.41 0  1.1 0.41 0  1.375 0.41 0  1.65 0.41 0  1.925 0.41 0  2.2 0.41 0  </DataArray>
</Points>
<Cells>
<DataArray  type="UInt32"  Name="connectivity"  format="ascii">0 1 9  1 9 10  1 2 11  1 10 11  2 3 11  3 11 12  3 4 13  3 12 13  4 5 13  5 13 14  5 6 15  5 14 15  6 7 15  7 15 16  7 8 17  7 16 17  9 10 19  9 18 19  10 11 19  11 19 20  11 12 21  11 20 21  12 13 21  13 21 22  13 14 23  13 22 23  14 15 23  15 23 24  15 16 25  15 24 25  16 17 25  17 25 26  18 19 27  19 27 28  19 20 29  19 28 29  20 21 29  21 29 30  21 22 31  21 30 31  22 23 31  23 31 32  23 24 33  23 32 33  24 25 33  25 33 34  25 26 35  25 34 35  27 28 37  27 36 37  28 29 37  29 37 38  29 30 39  29 38 39  30 31 39  31 39 40  31 32 41  31 40 41  32 33 41  33 41 42  33 34 43  33 42 43  34 35 43  35 43 44  36 37 45  37 45 46  37 38 47  37 46 47  38 39 47  39 47 48  39 40 49  39 48 49  40 41 49  41 49 50  41 42 51  41 50 51  42 43 51  43 51 52  43 44 53  43 52 53  45 46 55  45 54 55  46 47 55  47 55 56  47 48 57  47 56 57  48 49 57  49 57 58  49 50 59  49 58 59  50 51 59  51 59 60  51 52 61  51 60 61  52 53 61  53 61 62  54 55 63  55 63 64  55 56 65  55 64 65  56 57 65  57 65 66  57 58 67  57 66 67  58 59 67  59 67 68  59 60 69  59 68 69  60 61 69  61 69 70  61 62 71  61 70 71  63 64 73  63 72 73  64 65 73  65 73 74  65 66 75  65 74 75  66 67 75  67 75 76  67 68 77  67 76 77  68 69 77  69 77 78  69 70 79  69 78 79  70 71 79  71 79 80  </DataArray>
<DataArray  type="UInt32"  Name="offsets"  format="ascii">3 6 9 12 15 18 21 24 27 30 33 36 39 42 45 48 51 54 57 60 63 66 69 72 75 78 81 84 87 90 93 96 99 102 105 108 111 114 117 120 123 126 129 132 135 138 141 144 147 150 153 156 159 162 165 168 171 174 177 180 183 186 189 192 195 198 201 204 207 210 213 216 219 222 225 228 231 234 237 240 243 246 249 252 255 258 261 264 267 270 273 276 279 282 285 288 291 294 297 300 303 306 309 312 315 318 321 324 327 330 333 336 339 342 345 348 351 354 357 360 363 366 369 372 375 378 381 384 </DataArray>
<DataArray  type="UInt8"  Name="types"  format="ascii">5 5 5 5 5 5 5 5 5 5 5 5 5 5 5 5 5 5 5 5 5 5 5 5 5 5 5 5 5 5 5 5 5 5 5 5 5 5 5 5 5 5 5 5 5 5 5 5 5 5 5 5 5 5 5 5 5 5 5 5 5 5 5 5 5 5 5 5 5 5 5 5 5 5 5 5 5 5 5 5 5 5 5 5 5 5 5 5 5 5 5 5 5 5 5 5 5 5 5 5 5 5 5 5 5 5 5 5 5 5 5 5 5 5 5 5 5 5 5 5 5 5 5 5 5 5 5 5 </DataArray>
</Cells>
<PointData  Vectors="f_16"> 
<DataArray  type="Float64"  Name="f_16"  NumberOfComponents="3" format="ascii">2.0489989976970165e-05 -5.3157948630034763e-09 0.0000000000000000e+00  -1.2079227080305541e-06 4.0981689978445755e-10 0.0000000000000000e+00  1.0405133725738130e-06 -8.3651137943982769e-10 0.0000000000000000e+00  -8.2733000714434082e-06 -1.7844685433216203e-09 0.0000000000000000e+00  -2.9245263590764855e-06 1.8930918111647738e-09 0.0000000000000000e+00  -4.7812849644957120e-06 4.1596607516547880e-09 0.0000000000000000e+00  -5.2196286374120421e-06 3.9122875367821265e-09 0.0000000000000000e+00  -5.8756901360584192e-06 1.7424510394629297e-08 0.0000000000000000e+00  -1.1860898014681163e-06 1.5979695886948548e-08 0.0000000000000000e+00  6.5624702137520374e-01 -2.1335842527710014e-10 0.0000000000000000e+00  6.5713452869550981e-01 -1.4930968314993753e-04 0.0000000000000000e+00  6.5794520749168128e-01 2.0311824714367295e-04 0.0000000000000000e+00  6.5826331173651631e-01 -2.1910711175192282e-05 0.0000000000000000e+00  6.5828622833848294e-01 5.8687075575495226e-05 0.0000000000000000e+00  6.5888240404616072e-01 -6.2623601916722628e-05 0.0000000000000000e+00  6.5948772760671748e-01 -2.7868197398936987e-04 0.0000000000000000e+00  6.6728841281186591e-01 -1.6625180756301100e-03 0.0000000000000000e+00  6.8925309637915244e-01 -4.2539520812655985e-03 0.0000000000000000e+00  1.1249841155069917e+00 3.8976018223277844e-09 0.0000000000000000e+00  1.1254462029569177e+00 -6.3859292270771590e-04 0.0000000000000000e+00  1.1241992042396127e+00 -1.0937249497182765e-04 0.0000000000000000e+00  1.1262935996078849e+00 3.4294659350835866e-05 0.0000000000000000e+00  1.1254417859313903e+00 -5.3547399153372265e-07 0.0000000000000000e+00  1.1252174434786226e+00 -1.2888161966776963e-05 0.0000000000000000e+00  1.1252400099233153e+00 -2.7720536212483851e-04 0.0000000000000000e+00  1.1250390021764261e+00 -2.7382103436604513e-03 0.0000000000000000e+00  1.1261159021601186e+00 -7.0977467147867006e-03 0.0000000000000000e+00  1.4062394990447387e+00 1.9282185557390529e-09 0.0000000000000000e+00  1.4057521150586196e+00 -2.1849249977739556e-04 0.0000000000000000e+00  1.4068577067988652e+00 4.1903135352487412e-05 0.0000000000000000e+00  1.4040315731944930e+00 -1.2519982577795334e-05 0.0000000000000000e+00  1.4071089484395272e+00 -2.9947961728161396e-04 0.0000000000000000e+00  1.4066919965613491e+00 1.1227037781771157e-04 0.0000000000000000e+00  1.4056547685109246e+00 1.9272488480990128e-04 0.0000000000000000e+00  1.4000536683544047e+00 -2.0392207298612756e-03 0.0000000000000000e+00  1.3842678236392951e+00 -4.9872262035828207e-03 0.0000000000000000e+00  1.4999818582819502e+00 1.0409135991914169e-09 0.0000000000000000e+00  1.5005213091821130e+00 -1.5323691030085399e-04 0.0000000000000000e+00  1.4987603873013045e+00 -1.7380785761712803e-04 0.0000000000000000e+00  1.4988578556915872e+00 -1.1093686293950937e-04 0.0000000000000000e+00  1.4972890133641892e+00 -4.0185306670579910e-05 0.0000000000000000e+00  1.5008777301102281e+00 1.1278744046612310e-04 0.0000000000000000e+00  1.4980738038643568e+00 3.0068245102757963e-04 0.0000000000000000e+00  1.4910824821059090e+00 4.1560894166659521e-04 0.0000000000000000e+00  1.4708063803620608e+00 1.8084195821998285e-04 0.0000000000000000e+00  1.4062361364417877e+00 -1.1142046151323188e-09 0.0000000000000000e+00  1.4056608439124474e+00 4.8625010694148530e-06 0.0000000000000000e+00  1.4059708157078383e+00 -4.1451715348210267e-04 0.0000000000000000e+00  1.4043064448178502e+00 -2.3402192328320762e-04 0.0000000000000000e+00  1.4064442478092107e+00 2.2921719751643535e-04 0.0000000000000000e+00  1.4043793070318489e+00 9.4101741832897654e-05 0.0000000000000000e+00  1.4067841946208197e+00 2.5227178157851050e-04 0.0000000000000000e+00  1.3998209208780394e+00 2.4940444695224560e-03 0.0000000000000000e+00  1.3837833722121160e+00 5.0755694862190150e-03 0.0000000000000000e+00  1.1249860264505780e+00 -2.7014722137274879e-09 0.0000000000000000e+00  1.1251730622331926e+00 2.1128750854464183e-04 0.0000000000000000e+00  1.1252310113800146e+00 -1.1071128520232229e-04 0.0000000000000000e+00  1.1243817333584816e+00 -2.2050190381623361e-04 0.0000000000000000e+00  1.1240210528830621e+00 1.9175309462307642e-05 0.0000000000000000e+00  1.1250030642925406e+00 2.1826020413951702e-04 0.0000000000000000e+00  1.1230400841208574e+00 6.5050844710135762e-04 0.0000000000000000e+00  1.1258863537726111e+00 3.3063744788229986e-03 0.0000000000000000e+00  1.1258844143614684e+00 7.5066761925550443e-03 0.0000000000000000e+00  6.5624145270772527e-01 -1.1789925058298205e-10 0.0000000000000000e+00  6.5588780716555917e-01 4.3923204577184118e-05 0.0000000000000000e+00  6.5612175959795138e-01 -2.7188872619965111e-04 0.0000000000000000e+00  6.5630789484779928e-01 -2.6301173959989254e-05 0.0000000000000000e+00  6.5631158462166461e-01 -8.7614870434811893e-05 0.0000000000000000e+00  6.5626051826361753e-01 1.4376471036647601e-04 0.0000000000000000e+00  6.5946563874273134e-01 5.0525628496904699e-04 0.0000000000000000e+00  6.6581671144013865e-01 1.8289537005014712e-03 0.0000000000000000e+00  6.9117735608286313e-01 4.6614355506969579e-03 0.0000000000000000e+00  -7.0260650678561411e-06 2.9545822284052459e-10 0.0000000000000000e+00  -7.2342045198142935e-06 -7.9768125294896937e-10 0.0000000000000000e+00  -4.6094451232168114e-06 -1.0512650271333503e-11 0.0000000000000000e+00  -6.2665777646853264e-06 2.5627213129860913e-09 0.0000000000000000e+00  -2.2715172943955517e-06 1.7547702559268544e-09 0.0000000000000000e+00  -6.9440911717355113e-06 -8.3745882055102686e-09 0.0000000000000000e+00  -7.0447444046003001e-06 2.6758954046593727e-09 0.0000000000000000e+00  5.9011500017430960e-07 1.1687989679640683e-08 0.0000000000000000e+00  -1.0171976725890730e-05 -4.4957110592888645e-08 0.0000000000000000e+00  </DataArray> 
</PointData> 
</Piece>
</UnstructuredGrid>
</VTKFile>