<?xml version="1.0"?>
<VTKFile type="UnstructuredGrid"  version="0.1"  >
<UnstructuredGrid>
<Piece  NumberOfPoints="81" NumberOfCells="128">
<Points>
<DataArray  type="Float64"  NumberOfComponents="3"  format="ascii">0 0 0  0.275 0 0  0.55 0 0  0.8250000000000001 0 0  1.1 0 0  1.375 0 0  1.65 0 0  1.925 0 0  2.2 0 0  0 0.05125 0  0.275 0.05125 0  0.55 0.05125 0  0.8250000000000001 0.05125 0  1.1 0.05125 0  1.375 0.05125 0  1.65 0.05125 0  1.925 0.05125 0  2.2 0.05125 0  0 0.1025 0  0.275 0.1025 0  0.55 0.1025 0  0.8250000000000001 0.1025 0  1.1 0.1025 0  1.375 0.1025 0  1.65 0.1025 0  1.925 0.1025 0  2.2 0.1025 0  0 0.15375 0  0.275 0.15375 0  0.55 0.15375 0  0.8250000000000001 0.15375 0  1.1 0.15375 0  1.375 0.15375 0  1.65 0.15375 0  1.925 0.15375 0  2.2 0.15375 0  0 0.205 0  0.275 0.205 0  0.55 0.205 0  0.8250000000000001 0.205 0  1.1 0.205 0  1.375 0.205 0  1.65 0.205 0  1.925 0.205 0  2.2 0.205 0  0 0.25625 0  0.275 0.25625 0  0.55 0.25625 0  0.8250000000000001 0.25625 0  1.1 0.25625 0  1.375 0.25625 0  1.65 0.25625 0  1.925 0.25625 0  2.2 0.25625 0  0 0.3075 0  0.275 0.3075 0  0.55 0.3075 0  0.8250000000000001 0.3075 0  1.1 0.3075 0  1.375 0.3075 0  1.65 0.3075 0  1.925 0.3075 0  2.2 0.3075 0  0 0.35875 0  0.275 0.35875 0  0.55 0.35875 0  0.8250000000000001 0.35875 0  1.1 0.35875 0  1.375 0.35875 0  1.65 0.35875 0  1.925 0.35875 0  2.2 0.35875 0  0 0.41 0  0.275 0.41 0  0.55 0.41 0  0.8250000000000001 0.41 0  1.1 0.41 0  1.375 0.41 0  1.65 0.41 0  1.925 0.41 0  2.2 0.41 0  </DataArray>
</Points>
<Cells>
<DataArray  type="UInt32"  Name="connectivity"  format="ascii">0 1 9  1 9 10  1 2 11  1 10 11  2 3 11  3 11 12  3 4 13  3 12 13  4 5 13  5 13 14  5 6 15  5 14 15  6 7 15  7 15 16  7 8 17  7 16 17  9 10 19  9 18 19  10 11 19  11 19 20  11 12 21  11 20 21  12 13 21  13 21 22  13 14 23  13 22 23  14 15 23  15 23 24  15 16 25  15 24 25  16 17 25  17 25 26  18 19 27  19 27 28  19 20 29  19 28 29  20 21 29  21 29 30  21 22 31  21 30 31  22 23 31  23 31 32  23 24 33  23 32 33  24 25 33  25 33 34  25 26 35  25 34 35  27 28 37  27 36 37  28 29 37  29 37 38  29 30 39  29 38 39  30 31 39  31 39 40  31 32 41  31 40 41  32 33 41  33 41 42  33 34 43  33 42 43  34 35 43  35 43 44  36 37 45  37 45 46  37 38 47  37 46 47  38 39 47  39 47 48  39 40 49  39 48 49  40 41 49  41 49 50  41 42 51  41 50 51  42 43 51  43 51 52  43 44 53  43 52 53  45 46 55  45 54 55  46 47 55  47 55 56  47 48 57  47 56 57  48 49 57  49 57 58  49 50 59  49 58 59  50 51 59  51 59 60  51 52 61  51 60 61  52 53 61  53 61 62  54 55 63  55 63 64  55 56 65  55 64 65  56 57 65  57 65 66  57 58 67  57 66 67  58 59 67  59 67 68  59 60 69  59 68 69  60 61 69  61 69 70  61 62 71  61 70 71  63 64 73  63 72 73  64 65 73  65 73 74  65 66 75  65 74 75  66 67 75  67 75 76  67 68 77  67 76 77  68 69 77  69 77 78  69 70 79  69 78 79  70 71 79  71 79 80  </DataArray>
<DataArray  type="UInt32"  Name="offsets"  format="ascii">3 6 9 12 15 18 21 24 27 30 33 36 39 42 45 48 51 54 57 60 63 66 69 72 75 78 81 84 87 90 93 96 99 102 105 108 111 114 117 120 123 126 129 132 135 138 141 144 147 150 153 156 159 162 165 168 171 174 177 180 183 186 189 192 195 198 201 204 207 210 213 216 219 222 225 228 231 234 237 240 243 246 249 252 255 258 261 264 267 270 273 276 279 282 285 288 291 294 297 300 303 306 309 312 315 318 321 324 327 330 333 336 339 342 345 348 351 354 357 360 363 366 369 372 375 378 381 384 </DataArray>
<DataArray  type="UInt8"  Name="types"  format="ascii">5 5 5 5 5 5 5 5 5 5 5 5 5 5 5 5 5 5 5 5 5 5 5 5 5 5 5 5 5 5 5 5 5 5 5 5 5 5 5 5 5 5 5 5 5 5 5 5 5 5 5 5 5 5 5 5 5 5 5 5 5 5 5 5 5 5 5 5 5 5 5 5 5 5 5 5 5 5 5 5 5 5 5 5 5 5 5 5 5 5 5 5 5 5 5 5 5 5 5 5 5 5 5 5 5 5 5 5 5 5 5 5 5 5 5 5 5 5 5 5 5 5 5 5 5 5 5 5 </DataArray>
</Cells>
<PointData  Vectors="f_16"> 
<DataArray  type="Float64"  Name="f_16"  NumberOfComponents="3" format="ascii">2.0489185652270463e-05 -4.2935551199724636e-09 0.0000000000000000e+00  -1.2010536971652998e-06 -8.8234864074492892e-11 0.0000000000000000e+00  1.0444227527570989e-06 -9.2974251180281435e-10 0.0000000000000000e+00  -8.2932454865247120e-06 1.0733515247488484e-09 0.0000000000000000e+00  -2.9413311848119164e-06 -6.9167695045478247e-11 0.0000000000000000e+00  -4.7729090754251467e-06 -9.4162928356901456e-10 0.0000000000000000e+00  -5.1837219230564234e-06 -2.1403135828796712e-10 0.0000000000000000e+00  -5.9237623304459496e-06 -3.6560752246374350e-10 0.0000000000000000e+00  -1.2426024693999280e-06 2.3508695797837386e-10 0.0000000000000000e+00  6.5624702198610951e-01 -2.4569713875983852e-10 0.0000000000000000e+00  6.5715920882012446e-01 -1.2979310972834751e-04 0.0000000000000000e+00  6.5836646600061322e-01 1.3574838972901700e-04 0.0000000000000000e+00  6.5822051811984728e-01 -3.3781622700825122e-05 0.0000000000000000e+00  6.5876647164520319e-01 -2.1208590839042189e-05 0.0000000000000000e+00  6.5862581744922466e-01 4.1630588207214781e-05 0.0000000000000000e+00  6.5835134250479754e-01 3.6491049201198446e-06 0.0000000000000000e+00  6.5748030383282763e-01 2.6797150868262739e-05 0.0000000000000000e+00  6.5742738145949220e-01 -3.0750069901760136e-05 0.0000000000000000e+00  1.1249841002287495e+00 7.2613725645031356e-10 0.0000000000000000e+00  1.1255714886631598e+00 -6.2127810397887126e-04 0.0000000000000000e+00  1.1238585441233044e+00 -1.5313194887296778e-04 0.0000000000000000e+00  1.1264760768031008e+00 -1.4828182686524972e-04 0.0000000000000000e+00  1.1256312167529932e+00 1.2623819495551330e-05 0.0000000000000000e+00  1.1252638097674172e+00 1.9807344933304047e-04 0.0000000000000000e+00  1.1251762830374148e+00 1.4423468758277533e-04 0.0000000000000000e+00  1.1246305509152261e+00 2.0324069374518658e-04 0.0000000000000000e+00  1.1241197218732959e+00 1.8701697453944759e-04 0.0000000000000000e+00  1.4062394800471385e+00 -2.9567181246890145e-10 0.0000000000000000e+00  1.4055590786695644e+00 -1.5447349951171294e-04 0.0000000000000000e+00  1.4068066589200845e+00 -1.5214933088553595e-04 0.0000000000000000e+00  1.4047811858584278e+00 -1.9372657763704889e-04 0.0000000000000000e+00  1.4072501791752805e+00 -1.6510326082360148e-04 0.0000000000000000e+00  1.4060348188867859e+00 1.1154105880380416e-04 0.0000000000000000e+00  1.4057025372964553e+00 1.5220190210091236e-04 0.0000000000000000e+00  1.4056283578930868e+00 2.1795714807164903e-04 0.0000000000000000e+00  1.4055542102509597e+00 1.6996780741716926e-04 0.0000000000000000e+00  1.4999818410495633e+00 8.7883370468137956e-10 0.0000000000000000e+00  1.5000382507411685e+00 -1.5640163570583335e-04 0.0000000000000000e+00  1.4988815762574541e+00 -1.8265193757364303e-04 0.0000000000000000e+00  1.4996922140497448e+00 -1.2605039873678328e-04 0.0000000000000000e+00  1.4973836831015435e+00 -6.2875397117341368e-05 0.0000000000000000e+00  1.4991831935162323e+00 9.0047708262875893e-05 0.0000000000000000e+00  1.4984643462546359e+00 2.9097615244970913e-04 0.0000000000000000e+00  1.4981166903373773e+00 4.6842475266203746e-04 0.0000000000000000e+00  1.4981732609691194e+00 3.5340618861274246e-04 0.0000000000000000e+00  1.4062361152578899e+00 8.4660391752149809e-10 0.0000000000000000e+00  1.4054681535788005e+00 -6.3375300774761470e-05 0.0000000000000000e+00  1.4059059820995103e+00 -2.3014494687619502e-04 0.0000000000000000e+00  1.4050109995038942e+00 -7.9151211392890200e-05 0.0000000000000000e+00  1.4065192816296830e+00 5.1296614920606376e-05 0.0000000000000000e+00  1.4036203477645648e+00 5.3502183545439010e-05 0.0000000000000000e+00  1.4066154946340417e+00 2.2948462313304694e-04 0.0000000000000000e+00  1.4052046407323835e+00 3.6349811002882852e-04 0.0000000000000000e+00  1.4051163948539511e+00 3.3675998804242300e-04 0.0000000000000000e+00  1.1249860136267966e+00 2.0610532579458733e-10 0.0000000000000000e+00  1.1253020690078146e+00 1.9242854348163694e-04 0.0000000000000000e+00  1.1248695295549487e+00 -7.5368695661521688e-05 0.0000000000000000e+00  1.1245053029357879e+00 -5.6238517411982968e-05 0.0000000000000000e+00  1.1240695591511516e+00 -2.2791217295426480e-05 0.0000000000000000e+00  1.1248178615021964e+00 -2.0274370931331067e-05 0.0000000000000000e+00  1.1226093239700048e+00 2.2568763785867332e-04 0.0000000000000000e+00  1.1251275025952958e+00 4.5435347295501359e-04 0.0000000000000000e+00  1.1241447934322553e+00 4.8561650449242404e-04 0.0000000000000000e+00  6.5624143927050060e-01 -3.7649328797110275e-10 0.0000000000000000e+00  6.5591353900880256e-01 2.4037821104648864e-05 0.0000000000000000e+00  6.5653497293974805e-01 -2.0622151826116183e-04 0.0000000000000000e+00  6.5621341564045110e-01 -1.8781720038820490e-05 0.0000000000000000e+00  6.5665625847514797e-01 -1.8044940430783129e-05 0.0000000000000000e+00  6.5573728109674656e-01 3.5090591924882534e-05 0.0000000000000000e+00  6.5793600837768917e-01 2.2172916323899382e-04 0.0000000000000000e+00  6.5580318870513887e-01 1.7906289995226447e-04 0.0000000000000000e+00  6.5986374218017885e-01 5.6189316057324334e-04 0.0000000000000000e+00  -7.0288415799384317e-06 -9.7682094914135223e-10 0.0000000000000000e+00  -7.2263584203189641e-06 -4.5206090894569762e-10 0.0000000000000000e+00  -4.6022520869155715e-06 -2.7063698653673632e-10 0.0000000000000000e+00  -6.2747386588517531e-06 6.9760842509869180e-10 0.0000000000000000e+00  -2.2763573292440268e-06 1.2480390567934661e-09 0.0000000000000000e+00  -6.9277161270636777e-06 -1.2523570479383312e-09 0.0000000000000000e+00  -7.0862588427462435e-06 -6.9522339977924323e-10 0.0000000000000000e+00  4.7676780356532956e-07 9.5394374070060864e-11 0.0000000000000000e+00  -1.0287875176227937e-05 -4.5314452089517037e-09 0.0000000000000000e+00  </DataArray> 
</PointData> 
</Piece>
</UnstructuredGrid>
</VTKFile>