<?xml version="1.0"?>
<VTKFile type="UnstructuredGrid"  version="0.1"  >
<UnstructuredGrid>
<Piece  NumberOfPoints="81" NumberOfCells="128">
<Points>
<DataArray  type="Float64"  NumberOfComponents="3"  format="ascii">0 0 0  0.275 0 0  0.55 0 0  0.8250000000000001 0 0  1.1 0 0  1.375 0 0  1.65 0 0  1.925 0 0  2.2 0 0  0 0.05125 0  0.275 0.05125 0  0.55 0.05125 0  0.8250000000000001 0.05125 0  1.1 0.05125 0  1.375 0.05125 0  1.65 0.05125 0  1.925 0.05125 0  2.2 0.05125 0  0 0.1025 0  0.275 0.1025 0  0.55 0.1025 0  0.8250000000000001 0.1025 0  1.1 0.1025 0  1.375 0.1025 0  1.65 0.1025 0  1.925 0.1025 0  2.2 0.1025 0  0 0.15375 0  0.275 0.15375 0  0.55 0.15375 0  0.8250000000000001 0.15375 0  1.1 0.15375 0  1.375 0.15375 0  1.65 0.15375 0  1.925 0.15375 0  2.2 0.15375 0  0 0.205 0  0.275 0.205 0  0.55 0.205 0  0.8250000000000001 0.205 0  1.1 0.205 0  1.375 0.205 0  1.65 0.205 0  1.925 0.205 0  2.2 0.205 0  0 0.25625 0  0.275 0.25625 0  0.55 0.25625 0  0.8250000000000001 0.25625 0  1.1 0.25625 0  1.375 0.25625 0  1.65 0.25625 0  1.925 0.25625 0  2.2 0.25625 0  0 0.3075 0  0.275 0.3075 0  0.55 0.3075 0  0.8250000000000001 0.3075 0  1.1 0.3075 0  1.375 0.3075 0  1.65 0.3075 0  1.925 0.3075 0  2.2 0.3075 0  0 0.35875 0  0.275 0.35875 0  0.55 0.35875 0  0.8250000000000001 0.35875 0  1.1 0.35875 0  1.375 0.35875 0  1.65 0.35875 0  1.925 0.35875 0  2.2 0.35875 0  0 0.41 0  0.275 0.41 0  0.55 0.41 0  0.8250000000000001 0.41 0  1.1 0.41 0  1.375 0.41 0  1.65 0.41 0  1.925 0.41 0  2.2 0.41 0  </DataArray>
</Points>
<Cells>
<DataArray  type="UInt32"  Name="connectivity"  format="ascii">0 1 9  1 9 10  1 2 11  1 10 11  2 3 11  3 11 12  3 4 13  3 12 13  4 5 13  5 13 14  5 6 15  5 14 15  6 7 15  7 15 16  7 8 17  7 16 17  9 10 19  9 18 19  10 11 19  11 19 20  11 12 21  11 20 21  12 13 21  13 21 22  13 14 23  13 22 23  14 15 23  15 23 24  15 16 25  15 24 25  16 17 25  17 25 26  18 19 27  19 27 28  19 20 29  19 28 29  20 21 29  21 29 30  21 22 31  21 30 31  22 23 31  23 31 32  23 24 33  23 32 33  24 25 33  25 33 34  25 26 35  25 34 35  27 28 37  27 36 37  28 29 37  29 37 38  29 30 39  29 38 39  30 31 39  31 39 40  31 32 41  31 40 41  32 33 41  33 41 42  33 34 43  33 42 43  34 35 43  35 43 44  36 37 45  37 45 46  37 38 47  37 46 47  38 39 47  39 47 48  39 40 49  39 48 49  40 41 49  41 49 50  41 42 51  41 50 51  42 43 51  43 51 52  43 44 53  43 52 53  45 46 55  45 54 55  46 47 55  47 55 56  47 48 57  47 56 57  48 49 57  49 57 58  49 50 59  49 58 59  50 51 59  51 59 60  51 52 61  51 60 61  52 53 61  53 61 62  54 55 63  55 63 64  55 56 65  55 64 65  56 57 65  57 65 66  57 58 67  57 66 67  58 59 67  59 67 68  59 60 69  59 68 69  60 61 69  61 69 70  61 62 71  61 70 71  63 64 73  63 72 73  64 65 73  65 73 74  65 66 75  65 74 75  66 67 75  67 75 76  67 68 77  67 76 77  68 69 77  69 77 78  69 70 79  69 78 79  70 71 79  71 79 80  </DataArray>
<DataArray  type="UInt32"  Name="offsets"  format="ascii">3 6 9 12 15 18 21 24 27 30 33 36 39 42 45 48 51 54 57 60 63 66 69 72 75 78 81 84 87 90 93 96 99 102 105 108 111 114 117 120 123 126 129 132 135 138 141 144 147 150 153 156 159 162 165 168 171 174 177 180 183 186 189 192 195 198 201 204 207 210 213 216 219 222 225 228 231 234 237 240 243 246 249 252 255 258 261 264 267 270 273 276 279 282 285 288 291 294 297 300 303 306 309 312 315 318 321 324 327 330 333 336 339 342 345 348 351 354 357 360 363 366 369 372 375 378 381 384 </DataArray>
<DataArray  type="UInt8"  Name="types"  format="ascii">5 5 5 5 5 5 5 5 5 5 5 5 5 5 5 5 5 5 5 5 5 5 5 5 5 5 5 5 5 5 5 5 5 5 5 5 5 5 5 5 5 5 5 5 5 5 5 5 5 5 5 5 5 5 5 5 5 5 5 5 5 5 5 5 5 5 5 5 5 5 5 5 5 5 5 5 5 5 5 5 5 5 5 5 5 5 5 5 5 5 5 5 5 5 5 5 5 5 5 5 5 5 5 5 5 5 5 5 5 5 5 5 5 5 5 5 5 5 5 5 5 5 5 5 5 5 5 5 </DataArray>
</Cells>
<PointData  Vectors="f_16"> 
<DataArray  type="Float64"  Name="f_16"  NumberOfComponents="3" format="ascii">2.0489148336891496e-05 -4.3888957242857493e-09 0.0000000000000000e+00  -1.2014419128708427e-06 -3.1572602492878783e-11 0.0000000000000000e+00  1.0441368145954504e-06 -1.0280633450979834e-09 0.0000000000000000e+00  -8.2925840252377808e-06 1.0731180347625387e-09 0.0000000000000000e+00  -2.9410841201994615e-06 1.1343481150017862e-10 0.0000000000000000e+00  -4.7737331559523672e-06 -1.0090006872443918e-09 0.0000000000000000e+00  -5.1837575861540113e-06 -5.0189827210309848e-10 0.0000000000000000e+00  -5.9222592350599696e-06 -3.5170428969906318e-10 0.0000000000000000e+00  -1.2408268483877351e-06 2.2850964784427567e-10 0.0000000000000000e+00  6.5624702165091797e-01 -1.7416215423028190e-10 0.0000000000000000e+00  6.5713615441330431e-01 -1.2982767887342522e-04 0.0000000000000000e+00  6.5835964174532113e-01 1.3627145259773109e-04 0.0000000000000000e+00  6.5821196155367057e-01 -3.2466408051214045e-05 0.0000000000000000e+00  6.5875010127287759e-01 -1.9555365436432432e-05 0.0000000000000000e+00  6.5863126179507592e-01 3.5974949256363155e-05 0.0000000000000000e+00  6.5834464260532577e-01 5.1087315047314746e-06 0.0000000000000000e+00  6.5749146410820014e-01 2.3378261053782841e-05 0.0000000000000000e+00  6.5746578010140300e-01 -3.3031131565707692e-05 0.0000000000000000e+00  1.1249841003626433e+00 1.0774445557987778e-09 0.0000000000000000e+00  1.1255539315236043e+00 -6.2045481109465302e-04 0.0000000000000000e+00  1.1238754036245269e+00 -1.4899390020703569e-04 0.0000000000000000e+00  1.1264545455865620e+00 -1.3479622094179881e-04 0.0000000000000000e+00  1.1256093576555222e+00 4.8897551373374473e-06 0.0000000000000000e+00  1.1252777443593867e+00 1.8195531671362037e-04 0.0000000000000000e+00  1.1251895568506844e+00 1.5715369331595447e-04 0.0000000000000000e+00  1.1246163186089233e+00 2.0260682687527886e-04 0.0000000000000000e+00  1.1241367977348655e+00 1.5575465224411443e-04 0.0000000000000000e+00  1.4062394797009941e+00 -5.0347536448409581e-11 0.0000000000000000e+00  1.4055845312428994e+00 -1.5868532864034686e-04 0.0000000000000000e+00  1.4068088934676790e+00 -1.3966369884695071e-04 0.0000000000000000e+00  1.4047096496282889e+00 -1.9039524966526529e-04 0.0000000000000000e+00  1.4072477455967951e+00 -1.8462792787299071e-04 0.0000000000000000e+00  1.4061286959829575e+00 1.1118984374015875e-04 0.0000000000000000e+00  1.4057283278632113e+00 1.6816332599329742e-04 0.0000000000000000e+00  1.4056165986193934e+00 2.0739349359512452e-04 0.0000000000000000e+00  1.4055409377118098e+00 1.4101930657585814e-04 0.0000000000000000e+00  1.4999818412876811e+00 8.9193205971257388e-10 0.0000000000000000e+00  1.5000701595311350e+00 -1.5726864269568081e-04 0.0000000000000000e+00  1.4988552931310082e+00 -1.8304918858761865e-04 0.0000000000000000e+00  1.4995790313689734e+00 -1.2523308846127049e-04 0.0000000000000000e+00  1.4974103734960480e+00 -6.3976985323285621e-05 0.0000000000000000e+00  1.4993402907152353e+00 8.6478871835572860e-05 0.0000000000000000e+00  1.4984707544055407e+00 2.8852928883077553e-04 0.0000000000000000e+00  1.4980983794021459e+00 4.6613360290401651e-04 0.0000000000000000e+00  1.4981502935081241e+00 3.5065934322682708e-04 0.0000000000000000e+00  1.4062361149142053e+00 6.0947254817850895e-10 0.0000000000000000e+00  1.4054917889410348e+00 -5.9941878672982777e-05 0.0000000000000000e+00  1.4059065585308581e+00 -2.4306452539291247e-04 0.0000000000000000e+00  1.4049415718282525e+00 -8.2099604559392227e-05 0.0000000000000000e+00  1.4065151122718433e+00 6.8858640473250306e-05 0.0000000000000000e+00  1.4037044958384348e+00 4.8459701160833216e-05 0.0000000000000000e+00  1.4066299104392421e+00 2.0867134580913082e-04 0.0000000000000000e+00  1.4051752958867814e+00 3.6973194827127914e-04 0.0000000000000000e+00  1.4050767327901517e+00 3.6111638193595544e-04 0.0000000000000000e+00  1.1249860138204362e+00 -1.5110402127454759e-10 0.0000000000000000e+00  1.1252846436484853e+00 1.9113395014142923e-04 0.0000000000000000e+00  1.1248836560656537e+00 -8.0267170837086769e-05 0.0000000000000000e+00  1.1244819776911659e+00 -6.9549542950588387e-05 0.0000000000000000e+00  1.1240437913301018e+00 -1.6230061425342100e-05 0.0000000000000000e+00  1.1248185790999239e+00 -7.9361184574399934e-06 0.0000000000000000e+00  1.1225988241279956e+00 2.0940745553237321e-04 0.0000000000000000e+00  1.1250797260953778e+00 4.5237052985059261e-04 0.0000000000000000e+00  1.1241152724391719e+00 5.1496711964737975e-04 0.0000000000000000e+00  6.5624143903693055e-01 -4.4079715133858894e-10 0.0000000000000000e+00  6.5589107035906391e-01 2.4108058188532436e-05 0.0000000000000000e+00  6.5652724136810858e-01 -2.0705752801825563e-04 0.0000000000000000e+00  6.5620144417187831e-01 -2.0481866980771062e-05 0.0000000000000000e+00  6.5663376882509750e-01 -1.9960850004951694e-05 0.0000000000000000e+00  6.5572834833932925e-01 3.9753252029917481e-05 0.0000000000000000e+00  6.5790516850887126e-01 2.1903021992538655e-04 0.0000000000000000e+00  6.5578045130109752e-01 1.8154420588725327e-04 0.0000000000000000e+00  6.5986388163910914e-01 5.6457356686615825e-04 0.0000000000000000e+00  -7.0288864791561729e-06 -8.5432224882245566e-10 0.0000000000000000e+00  -7.2267087619327397e-06 -4.7415260810352302e-10 0.0000000000000000e+00  -4.6024949116064945e-06 -1.5387509394651227e-10 0.0000000000000000e+00  -6.2739803383580400e-06 7.1185531314919793e-10 0.0000000000000000e+00  -2.2762036162103508e-06 1.0245423686643728e-09 0.0000000000000000e+00  -6.9284618144957713e-06 -1.2091560678780750e-09 0.0000000000000000e+00  -7.0859796804654814e-06 -3.7425786729927844e-10 0.0000000000000000e+00  4.7831995754138155e-07 1.8508521375036097e-10 0.0000000000000000e+00  -1.0285615173621926e-05 -4.6093711286986667e-09 0.0000000000000000e+00  </DataArray> 
</PointData> 
</Piece>
</UnstructuredGrid>
</VTKFile>