<?xml version="1.0"?>
<VTKFile type="UnstructuredGrid"  version="0.1"  >
<UnstructuredGrid>
<Piece  NumberOfPoints="81" NumberOfCells="128">
<Points>
<DataArray  type="Float64"  NumberOfComponents="3"  format="ascii">0 0 0  0.275 0 0  0.55 0 0  0.8250000000000001 0 0  1.1 0 0  1.375 0 0  1.65 0 0  1.925 0 0  2.2 0 0  0 0.05125 0  0.275 0.05125 0  0.55 0.05125 0  0.8250000000000001 0.05125 0  1.1 0.05125 0  1.375 0.05125 0  1.65 0.05125 0  1.925 0.05125 0  2.2 0.05125 0  0 0.1025 0  0.275 0.1025 0  0.55 0.1025 0  0.8250000000000001 0.1025 0  1.1 0.1025 0  1.375 0.1025 0  1.65 0.1025 0  1.925 0.1025 0  2.2 0.1025 0  0 0.15375 0  0.275 0.15375 0  0.55 0.15375 0  0.8250000000000001 0.15375 0  1.1 0.15375 0  1.375 0.15375 0  1.65 0.15375 0  1.925 0.15375 0  2.2 0.15375 0  0 0.205 0  0.275 0.205 0  0.55 0.205 0  0.8250000000000001 0.205 0  1.1 0.205 0  1.375 0.205 0  1.65 0.205 0  1.925 0.205 0  2.2 0.205 0  0 0.25625 0  0.275 0.25625 0  0.55 0.25625 0  0.8250000000000001 0.25625 0  1.1 0.25625 0  1.375 0.25625 0  1.65 0.25625 0  1.925 0.25625 0  2.2 0.25625 0  0 0.3075 0  0.275 0.3075 0  0.55 0.3075 0  0.8250000000000001 0.3075 0  1.1 0.3075 0  1.375 0.3075 0  1.65 0.3075 0  1.925 0.3075 0  2.2 0.3075 0  0 0.35875 0  0.275 0.35875 0  0.55 0.35875 0  0.8250000000000001 0.35875 0  1.1 0.35875 0  1.375 0.35875 0  1.65 0.35875 0  1.925 0.35875 0  2.2 0.35875 0  0 0.41 0  0.275 0.41 0  0.55 0.41 0  0.8250000000000001 0.41 0  1.1 0.41 0  1.375 0.41 0  1.65 0.41 0  1.925 0.41 0  2.2 0.41 0  </DataArray>
</Points>
<Cells>
<DataArray  type="UInt32"  Name="connectivity"  format="ascii">0 1 9  1 9 10  1 2 11  1 10 11  2 3 11  3 11 12  3 4 13  3 12 13  4 5 13  5 13 14  5 6 15  5 14 15  6 7 15  7 15 16  7 8 17  7 16 17  9 10 19  9 18 19  10 11 19  11 19 20  11 12 21  11 20 21  12 13 21  13 21 22  13 14 23  13 22 23  14 15 23  15 23 24  15 16 25  15 24 25  16 17 25  17 25 26  18 19 27  19 27 28  19 20 29  19 28 29  20 21 29  21 29 30  21 22 31  21 30 31  22 23 31  23 31 32  23 24 33  23 32 33  24 25 33  25 33 34  25 26 35  25 34 35  27 28 37  27 36 37  28 29 37  29 37 38  29 30 39  29 38 39  30 31 39  31 39 40  31 32 41  31 40 41  32 33 41  33 41 42  33 34 43  33 42 43  34 35 43  35 43 44  36 37 45  37 45 46  37 38 47  37 46 47  38 39 47  39 47 48  39 40 49  39 48 49  40 41 49  41 49 50  41 42 51  41 50 51  42 43 51  43 51 52  43 44 53  43 52 53  45 46 55  45 54 55  46 47 55  47 55 56  47 48 57  47 56 57  48 49 57  49 57 58  49 50 59  49 58 59  50 51 59  51 59 60  51 52 61  51 60 61  52 53 61  53 61 62  54 55 63  55 63 64  55 56 65  55 64 65  56 57 65  57 65 66  57 58 67  57 66 67  58 59 67  59 67 68  59 60 69  59 68 69  60 61 69  61 69 70  61 62 71  61 70 71  63 64 73  63 72 73  64 65 73  65 73 74  65 66 75  65 74 75  66 67 75  67 75 76  67 68 77  67 76 77  68 69 77  69 77 78  69 70 79  69 78 79  70 71 79  71 79 80  </DataArray>
<DataArray  type="UInt32"  Name="offsets"  format="ascii">3 6 9 12 15 18 21 24 27 30 33 36 39 42 45 48 51 54 57 60 63 66 69 72 75 78 81 84 87 90 93 96 99 102 105 108 111 114 117 120 123 126 129 132 135 138 141 144 147 150 153 156 159 162 165 168 171 174 177 180 183 186 189 192 195 198 201 204 207 210 213 216 219 222 225 228 231 234 237 240 243 246 249 252 255 258 261 264 267 270 273 276 279 282 285 288 291 294 297 300 303 306 309 312 315 318 321 324 327 330 333 336 339 342 345 348 351 354 357 360 363 366 369 372 375 378 381 384 </DataArray>
<DataArray  type="UInt8"  Name="types"  format="ascii">5 5 5 5 5 5 5 5 5 5 5 5 5 5 5 5 5 5 5 5 5 5 5 5 5 5 5 5 5 5 5 5 5 5 5 5 5 5 5 5 5 5 5 5 5 5 5 5 5 5 5 5 5 5 5 5 5 5 5 5 5 5 5 5 5 5 5 5 5 5 5 5 5 5 5 5 5 5 5 5 5 5 5 5 5 5 5 5 5 5 5 5 5 5 5 5 5 5 5 5 5 5 5 5 5 5 5 5 5 5 5 5 5 5 5 5 5 5 5 5 5 5 5 5 5 5 5 5 </DataArray>
</Cells>
<PointData  Vectors="f_16"> 
<DataArray  type="Float64"  Name="f_16"  NumberOfComponents="3" format="ascii">2.0489937678019293e-05 -4.4051879419874363e-09 0.0000000000000000e+00  -1.2012122144300377e-06 -2.1113447627198508e-11 0.0000000000000000e+00  1.0435239541887222e-06 -9.3854230763824043e-10 0.0000000000000000e+00  -8.2928235574583213e-06 9.3504658618878508e-10 0.0000000000000000e+00  -2.9401098125621830e-06 -5.6665296522457991e-11 0.0000000000000000e+00  -4.7733577157064440e-06 -7.4035574732946973e-10 0.0000000000000000e+00  -5.1849551364992431e-06 -3.3525086714367478e-10 0.0000000000000000e+00  -5.9224397007955908e-06 -5.4693262525653011e-10 0.0000000000000000e+00  -1.2391799262652214e-06 1.7341039306519867e-10 0.0000000000000000e+00  6.5624702228402576e-01 -3.3838457181085528e-10 0.0000000000000000e+00  6.5712400389250381e-01 -1.2736672575832609e-04 0.0000000000000000e+00  6.5836964062079173e-01 1.3353163801372358e-04 0.0000000000000000e+00  6.5820247426147194e-01 -3.2954793795879482e-05 0.0000000000000000e+00  6.5876768993648371e-01 -1.9526752733733928e-05 0.0000000000000000e+00  6.5862616176618205e-01 3.8662436160699256e-05 0.0000000000000000e+00  6.5834326149260081e-01 5.9092378559500265e-07 0.0000000000000000e+00  6.5750071944403898e-01 2.8612342777975691e-05 0.0000000000000000e+00  6.5750080062147476e-01 -4.2654928494945007e-05 0.0000000000000000e+00  1.1249841012497153e+00 9.0067590481286641e-10 0.0000000000000000e+00  1.1255464951743748e+00 -6.1972134420001652e-04 0.0000000000000000e+00  1.1238751230010497e+00 -1.5657547362165104e-04 0.0000000000000000e+00  1.1264645452187341e+00 -1.3374843646890566e-04 0.0000000000000000e+00  1.1256152169810316e+00 1.4387125318584192e-05 0.0000000000000000e+00  1.1252432470569127e+00 1.8617927366991347e-04 0.0000000000000000e+00  1.1251884587328682e+00 1.4610615795213392e-04 0.0000000000000000e+00  1.1246443664452233e+00 2.1315743987342309e-04 0.0000000000000000e+00  1.1241494701264552e+00 1.4584488430311243e-04 0.0000000000000000e+00  1.4062394805640854e+00 -1.4957027230683164e-10 0.0000000000000000e+00  1.4055754671162564e+00 -1.6325926482056095e-04 0.0000000000000000e+00  1.4068497919366894e+00 -1.4748127521514959e-04 0.0000000000000000e+00  1.4047479011795232e+00 -1.8237265349999862e-04 0.0000000000000000e+00  1.4071956565451857e+00 -1.7342177276010094e-04 0.0000000000000000e+00  1.4060890705556552e+00 9.7803504697375497e-05 0.0000000000000000e+00  1.4057890705263465e+00 1.5527902888145997e-04 0.0000000000000000e+00  1.4056755695634531e+00 2.1626222806310654e-04 0.0000000000000000e+00  1.4055511764270496e+00 1.3331869469143331e-04 0.0000000000000000e+00  1.4999818424405009e+00 8.7887412656402303e-10 0.0000000000000000e+00  1.5000569615896957e+00 -1.5722038256192484e-04 0.0000000000000000e+00  1.4989095359706524e+00 -1.8382651383794355e-04 0.0000000000000000e+00  1.4996109881492004e+00 -1.2694468520476295e-04 0.0000000000000000e+00  1.4973259824160110e+00 -6.4899691305453301e-05 0.0000000000000000e+00  1.4992943161900478e+00 8.4933473138805690e-05 0.0000000000000000e+00  1.4985605576330658e+00 2.8354401994136079e-04 0.0000000000000000e+00  1.4981495646586180e+00 4.6100092481920173e-04 0.0000000000000000e+00  1.4981716015972706e+00 3.4591951388140973e-04 0.0000000000000000e+00  1.4062361158332968e+00 7.0209902629819285e-10 0.0000000000000000e+00  1.4054835502822660e+00 -5.5384639309212567e-05 0.0000000000000000e+00  1.4059464690059862e+00 -2.3626424503394382e-04 0.0000000000000000e+00  1.4049750195132378e+00 -9.2815544498123088e-05 0.0000000000000000e+00  1.4064606637732116e+00 5.6260465631344422e-05 0.0000000000000000e+00  1.4036589776579964e+00 5.8204827718925783e-05 0.0000000000000000e+00  1.4066733946813270e+00 2.1186597785564633e-04 0.0000000000000000e+00  1.4052069321986882e+00 3.5160603416331066e-04 0.0000000000000000e+00  1.4050491619035841e+00 3.6068497590148571e-04 0.0000000000000000e+00  1.1249860146308945e+00 3.5667916226569620e-11 0.0000000000000000e+00  1.1252777824099296e+00 1.9035476455482513e-04 0.0000000000000000e+00  1.1248826501181306e+00 -7.3264196241514218e-05 0.0000000000000000e+00  1.1244875298569301e+00 -7.2407659858667056e-05 0.0000000000000000e+00  1.1240403836869779e+00 -2.7827694838417539e-05 0.0000000000000000e+00  1.1247710781869404e+00 -1.4471585628057710e-05 0.0000000000000000e+00  1.1225682687182126e+00 2.1534638699875419e-04 0.0000000000000000e+00  1.1250580817017297e+00 4.3592726181670950e-04 0.0000000000000000e+00  1.1240560059709599e+00 5.1928861742566465e-04 0.0000000000000000e+00  6.5624143966785276e-01 -2.7474284986625136e-10 0.0000000000000000e+00  6.5587890524582404e-01 2.1604996959168525e-05 0.0000000000000000e+00  6.5653580839688330e-01 -2.0448408424885616e-04 0.0000000000000000e+00  6.5618800241418440e-01 -2.0382883027500467e-05 0.0000000000000000e+00  6.5664207195302937e-01 -2.0965425081869477e-05 0.0000000000000000e+00  6.5570487001305422e-01 3.5923097647443335e-05 0.0000000000000000e+00  6.5787123130546032e-01 2.2166051990331470e-04 0.0000000000000000e+00  6.5573879694368764e-01 1.7456786871675363e-04 0.0000000000000000e+00  6.5982970322440382e-01 5.7266356895996882e-04 0.0000000000000000e+00  -7.0281647554897841e-06 -8.4196034403853659e-10 0.0000000000000000e+00  -7.2264772766476383e-06 -5.0071045387878871e-10 0.0000000000000000e+00  -4.6031691192470775e-06 -2.5286838376354683e-10 0.0000000000000000e+00  -6.2743082645571712e-06 8.5832647978115128e-10 0.0000000000000000e+00  -2.2751913349951112e-06 1.1691511644887014e-09 0.0000000000000000e+00  -6.9279266796457687e-06 -1.4298410385633560e-09 0.0000000000000000e+00  -7.0870172324828604e-06 -4.8511614108424234e-10 0.0000000000000000e+00  4.7812072201855883e-07 4.1275035171225446e-10 0.0000000000000000e+00  -1.0283645049706273e-05 -4.5179895744294024e-09 0.0000000000000000e+00  </DataArray> 
</PointData> 
</Piece>
</UnstructuredGrid>
</VTKFile>