<?xml version="1.0"?>
<VTKFile type="UnstructuredGrid"  version="0.1"  >
<UnstructuredGrid>
<Piece  NumberOfPoints="81" NumberOfCells="128">
<Points>
<DataArray  type="Float64"  NumberOfComponents="3"  format="ascii">0 0 0  0.275 0 0  0.55 0 0  0.8250000000000001 0 0  1.1 0 0  1.375 0 0  1.65 0 0  1.925 0 0  2.2 0 0  0 0.05125 0  0.275 0.05125 0  0.55 0.05125 0  0.8250000000000001 0.05125 0  1.1 0.05125 0  1.375 0.05125 0  1.65 0.05125 0  1.925 0.05125 0  2.2 0.05125 0  0 0.1025 0  0.275 0.1025 0  0.55 0.1025 0  0.8250000000000001 0.1025 0  1.1 0.1025 0  1.375 0.1025 0  1.65 0.1025 0  1.925 0.1025 0  2.2 0.1025 0  0 0.15375 0  0.275 0.15375 0  0.55 0.15375 0  0.8250000000000001 0.15375 0  1.1 0.15375 0  1.375 0.15375 0  1.65 0.15375 0  1.925 0.15375 0  2.2 0.15375 0  0 0.205 0  0.275 0.205 0  0.55 0.205 0  0.8250000000000001 0.205 0  1.1 0.205 0  1.375 0.205 0  1.65 0.205 0  1.925 0.205 0  2.2 0.205 0  0 0.25625 0  0.275 0.25625 0  0.55 0.25625 0  0.8250000000000001 0.25625 0  1.1 0.25625 0  1.375 0.25625 0  1.65 0.25625 0  1.925 0.25625 0  2.2 0.25625 0  0 0.3075 0  0.275 0.3075 0  0.55 0.3075 0  0.8250000000000001 0.3075 0  1.1 0.3075 0  1.375 0.3075 0  1.65 0.3075 0  1.925 0.3075 0  2.2 0.3075 0  0 0.35875 0  0.275 0.35875 0  0.55 0.35875 0  0.8250000000000001 0.35875 0  1.1 0.35875 0  1.375 0.35875 0  1.65 0.35875 0  1.925 0.35875 0  2.2 0.35875 0  0 0.41 0  0.275 0.41 0  0.55 0.41 0  0.8250000000000001 0.41 0  1.1 0.41 0  1.375 0.41 0  1.65 0.41 0  1.925 0.41 0  2.2 0.41 0  </DataArray>
</Points>
<Cells>
<DataArray  type="UInt32"  Name="connectivity"  format="ascii">0 1 9  1 9 10  1 2 11  1 10 11  2 3 11  3 11 12  3 4 13  3 12 13  4 5 13  5 13 14  5 6 15  5 14 15  6 7 15  7 15 16  7 8 17  7 16 17  9 10 19  9 18 19  10 11 19  11 19 20  11 12 21  11 20 21  12 13 21  13 21 22  13 14 23  13 22 23  14 15 23  15 23 24  15 16 25  15 24 25  16 17 25  17 25 26  18 19 27  19 27 28  19 20 29  19 28 29  20 21 29  21 29 30  21 22 31  21 30 31  22 23 31  23 31 32  23 24 33  23 32 33  24 25 33  25 33 34  25 26 35  25 34 35  27 28 37  27 36 37  28 29 37  29 37 38  29 30 39  29 38 39  30 31 39  31 39 40  31 32 41  31 40 41  32 33 41  33 41 42  33 34 43  33 42 43  34 35 43  35 43 44  36 37 45  37 45 46  37 38 47  37 46 47  38 39 47  39 47 48  39 40 49  39 48 49  40 41 49  41 49 50  41 42 51  41 50 51  42 43 51  43 51 52  43 44 53  43 52 53  45 46 55  45 54 55  46 47 55  47 55 56  47 48 57  47 56 57  48 49 57  49 57 58  49 50 59  49 58 59  50 51 59  51 59 60  51 52 61  51 60 61  52 53 61  53 61 62  54 55 63  55 63 64  55 56 65  55 64 65  56 57 65  57 65 66  57 58 67  57 66 67  58 59 67  59 67 68  59 60 69  59 68 69  60 61 69  61 69 70  61 62 71  61 70 71  63 64 73  63 72 73  64 65 73  65 73 74  65 66 75  65 74 75  66 67 75  67 75 76  67 68 77  67 76 77  68 69 77  69 77 78  69 70 79  69 78 79  70 71 79  71 79 80  </DataArray>
<DataArray  type="UInt32"  Name="offsets"  format="ascii">3 6 9 12 15 18 21 24 27 30 33 36 39 42 45 48 51 54 57 60 63 66 69 72 75 78 81 84 87 90 93 96 99 102 105 108 111 114 117 120 123 126 129 132 135 138 141 144 147 150 153 156 159 162 165 168 171 174 177 180 183 186 189 192 195 198 201 204 207 210 213 216 219 222 225 228 231 234 237 240 243 246 249 252 255 258 261 264 267 270 273 276 279 282 285 288 291 294 297 300 303 306 309 312 315 318 321 324 327 330 333 336 339 342 345 348 351 354 357 360 363 366 369 372 375 378 381 384 </DataArray>
<DataArray  type="UInt8"  Name="types"  format="ascii">5 5 5 5 5 5 5 5 5 5 5 5 5 5 5 5 5 5 5 5 5 5 5 5 5 5 5 5 5 5 5 5 5 5 5 5 5 5 5 5 5 5 5 5 5 5 5 5 5 5 5 5 5 5 5 5 5 5 5 5 5 5 5 5 5 5 5 5 5 5 5 5 5 5 5 5 5 5 5 5 5 5 5 5 5 5 5 5 5 5 5 5 5 5 5 5 5 5 5 5 5 5 5 5 5 5 5 5 5 5 5 5 5 5 5 5 5 5 5 5 5 5 5 5 5 5 5 5 </DataArray>
</Cells>
<PointData  Vectors="f_16"> 
<DataArray  type="Float64"  Name="f_16"  NumberOfComponents="3" format="ascii">2.0474920261702431e-05 -2.5589661096750290e-09 0.0000000000000000e+00  -1.2128534666659786e-06 -1.5209757402913191e-09 0.0000000000000000e+00  1.0621824234262804e-06 -3.3295177023511579e-09 0.0000000000000000e+00  -8.2538303921084861e-06 2.8582107213302844e-09 0.0000000000000000e+00  -2.9424611301867022e-06 3.6145160431516506e-09 0.0000000000000000e+00  -4.7805938992820946e-06 5.6789585660626720e-09 0.0000000000000000e+00  -5.2582112091607290e-06 7.0515287037132348e-09 0.0000000000000000e+00  -5.9387950704045674e-06 3.0761005455859982e-08 0.0000000000000000e+00  -1.4150267942601793e-06 3.4439871530117527e-08 0.0000000000000000e+00  6.5624701637449945e-01 4.2851082374374101e-09 0.0000000000000000e+00  6.5743289079546430e-01 -1.2632255538282721e-04 0.0000000000000000e+00  6.5803180561411545e-01 1.9207494442386426e-04 0.0000000000000000e+00  6.5789900760689768e-01 1.0514520929300979e-04 0.0000000000000000e+00  6.5804267920810711e-01 -2.1981280715357147e-05 0.0000000000000000e+00  6.5890659645909844e-01 4.8726692752875417e-05 0.0000000000000000e+00  6.6496579371663456e-01 -1.6182745605301447e-03 0.0000000000000000e+00  6.8744203757416589e-01 -4.0267494733238962e-03 0.0000000000000000e+00  7.2298491461172665e-01 -5.0422825837746826e-03 0.0000000000000000e+00  1.1249841145170361e+00 4.5814030673709807e-09 0.0000000000000000e+00  1.1256725632900062e+00 -7.1332807036396753e-04 0.0000000000000000e+00  1.1235117977235247e+00 9.1867569015189086e-05 0.0000000000000000e+00  1.1257711753693400e+00 -8.5616707102472402e-05 0.0000000000000000e+00  1.1253333175897573e+00 -1.4782389439657169e-04 0.0000000000000000e+00  1.1251460086492309e+00 2.1517225083370758e-04 0.0000000000000000e+00  1.1256287880801870e+00 -2.4137101888463894e-03 0.0000000000000000e+00  1.1241740780074032e+00 -7.3674362517071115e-03 0.0000000000000000e+00  1.1306203367769307e+00 -1.0829456685911454e-02 0.0000000000000000e+00  1.4062395279547935e+00 8.7431528729422454e-10 0.0000000000000000e+00  1.4054412480121283e+00 -4.9931937358286802e-05 0.0000000000000000e+00  1.4059830990735673e+00 2.4855288273402978e-04 0.0000000000000000e+00  1.4044410882292631e+00 -4.1016602681957673e-04 0.0000000000000000e+00  1.4083427030522393e+00 -2.0529181066017627e-04 0.0000000000000000e+00  1.4069033828883104e+00 5.1513333060870976e-05 0.0000000000000000e+00  1.4016603253861286e+00 -1.0390580272212104e-03 0.0000000000000000e+00  1.3864628983457470e+00 -4.8365142027541278e-03 0.0000000000000000e+00  1.3581097245350966e+00 -8.3595642375140621e-03 0.0000000000000000e+00  1.4999818493328898e+00 8.9446370306582869e-10 0.0000000000000000e+00  1.5005671114379657e+00 -1.4905872531568214e-04 0.0000000000000000e+00  1.4979222489602768e+00 -1.7450939618111070e-04 0.0000000000000000e+00  1.4993763550033914e+00 -1.0360348995426949e-04 0.0000000000000000e+00  1.4992028149665497e+00 -3.1974438894426413e-05 0.0000000000000000e+00  1.5003257860468480e+00 1.4642798469457748e-04 0.0000000000000000e+00  1.4923901126451711e+00 2.8854800016461530e-04 0.0000000000000000e+00  1.4760373328588927e+00 3.3012056596287790e-04 0.0000000000000000e+00  1.4346400617350084e+00 6.2104844405131077e-05 0.0000000000000000e+00  1.4062361679337800e+00 1.9435109509048110e-12 0.0000000000000000e+00  1.4053584171906268e+00 -1.5874249620255034e-04 0.0000000000000000e+00  1.4051124649626010e+00 -6.2738412852290763e-04 0.0000000000000000e+00  1.4047110799327152e+00 1.7357448052841886e-04 0.0000000000000000e+00  1.4076896996300097e+00 1.4585947561304502e-04 0.0000000000000000e+00  1.4046871452807077e+00 1.8847723985948304e-04 0.0000000000000000e+00  1.4028810362359907e+00 1.4918932328846475e-03 0.0000000000000000e+00  1.3862445454269110e+00 5.1525756406909729e-03 0.0000000000000000e+00  1.3574409000098835e+00 8.2144701025192220e-03 0.0000000000000000e+00  1.1249860207101232e+00 -2.5779677535911497e-09 0.0000000000000000e+00  1.1254039106504037e+00 2.8751591188131938e-04 0.0000000000000000e+00  1.1245579788588167e+00 -3.0667381197010339e-04 0.0000000000000000e+00  1.1238854926751511e+00 -9.3173137576410805e-05 0.0000000000000000e+00  1.1239534435674519e+00 1.7458567999731686e-04 0.0000000000000000e+00  1.1250558269297517e+00 2.2348255890637625e-05 0.0000000000000000e+00  1.1235871754633246e+00 2.7611594519062334e-03 0.0000000000000000e+00  1.1250258564804723e+00 7.8231928789186198e-03 0.0000000000000000e+00  1.1299264797677757e+00 1.1094671253405264e-02 0.0000000000000000e+00  6.5624147167640356e-01 -4.4258971827588534e-09 0.0000000000000000e+00  6.5617183151518110e-01 1.9514879289448452e-05 0.0000000000000000e+00  6.5621496556803571e-01 -2.5897268896168143e-04 0.0000000000000000e+00  6.5598026515244900e-01 -1.4667236510325777e-04 0.0000000000000000e+00  6.5612055322123763e-01 -6.3779998490776589e-06 0.0000000000000000e+00  6.5641090871509133e-01 3.4214569543320391e-05 0.0000000000000000e+00  6.6508994965497836e-01 1.8364056180479689e-03 0.0000000000000000e+00  6.8590917864345946e-01 4.1610556985609212e-03 0.0000000000000000e+00  7.2451162197428243e-01 5.4037457355795727e-03 0.0000000000000000e+00  -7.0371073609901590e-06 -3.2614507425892454e-09 0.0000000000000000e+00  -7.2417890571728526e-06 4.2811295625055007e-10 0.0000000000000000e+00  -4.5880608856968672e-06 2.8622959858381409e-09 0.0000000000000000e+00  -6.2658122466828313e-06 -8.6438007004021666e-10 0.0000000000000000e+00  -2.3034539020217636e-06 1.0102880015311827e-08 0.0000000000000000e+00  -6.9477607672195589e-06 -9.0890214658285681e-09 0.0000000000000000e+00  -6.9924332450224823e-06 -1.8647531520318335e-09 0.0000000000000000e+00  6.3838738685554032e-07 1.6709478391104107e-08 0.0000000000000000e+00  -1.0254513587236271e-05 -8.4248570038163325e-08 0.0000000000000000e+00  </DataArray> 
</PointData> 
</Piece>
</UnstructuredGrid>
</VTKFile>