<?xml version="1.0"?>
<VTKFile type="UnstructuredGrid"  version="0.1"  >
<UnstructuredGrid>
<Piece  NumberOfPoints="81" NumberOfCells="128">
<Points>
<DataArray  type="Float64"  NumberOfComponents="3"  format="ascii">0 0 0  0.275 0 0  0.55 0 0  0.8250000000000001 0 0  1.1 0 0  1.375 0 0  1.65 0 0  1.925 0 0  2.2 0 0  0 0.05125 0  0.275 0.05125 0  0.55 0.05125 0  0.8250000000000001 0.05125 0  1.1 0.05125 0  1.375 0.05125 0  1.65 0.05125 0  1.925 0.05125 0  2.2 0.05125 0  0 0.1025 0  0.275 0.1025 0  0.55 0.1025 0  0.8250000000000001 0.1025 0  1.1 0.1025 0  1.375 0.1025 0  1.65 0.1025 0  1.925 0.1025 0  2.2 0.1025 0  0 0.15375 0  0.275 0.15375 0  0.55 0.15375 0  0.8250000000000001 0.15375 0  1.1 0.15375 0  1.375 0.15375 0  1.65 0.15375 0  1.925 0.15375 0  2.2 0.15375 0  0 0.205 0  0.275 0.205 0  0.55 0.205 0  0.8250000000000001 0.205 0  1.1 0.205 0  1.375 0.205 0  1.65 0.205 0  1.925 0.205 0  2.2 0.205 0  0 0.25625 0  0.275 0.25625 0  0.55 0.25625 0  0.8250000000000001 0.25625 0  1.1 0.25625 0  1.375 0.25625 0  1.65 0.25625 0  1.925 0.25625 0  2.2 0.25625 0  0 0.3075 0  0.275 0.3075 0  0.55 0.3075 0  0.8250000000000001 0.3075 0  1.1 0.3075 0  1.375 0.3075 0  1.65 0.3075 0  1.925 0.3075 0  2.2 0.3075 0  0 0.35875 0  0.275 0.35875 0  0.55 0.35875 0  0.8250000000000001 0.35875 0  1.1 0.35875 0  1.375 0.35875 0  1.65 0.35875 0  1.925 0.35875 0  2.2 0.35875 0  0 0.41 0  0.275 0.41 0  0.55 0.41 0  0.8250000000000001 0.41 0  1.1 0.41 0  1.375 0.41 0  1.65 0.41 0  1.925 0.41 0  2.2 0.41 0  </DataArray>
</Points>
<Cells>
<DataArray  type="UInt32"  Name="connectivity"  format="ascii">0 1 9  1 9 10  1 2 11  1 10 11  2 3 11  3 11 12  3 4 13  3 12 13  4 5 13  5 13 14  5 6 15  5 14 15  6 7 15  7 15 16  7 8 17  7 16 17  9 10 19  9 18 19  10 11 19  11 19 20  11 12 21  11 20 21  12 13 21  13 21 22  13 14 23  13 22 23  14 15 23  15 23 24  15 16 25  15 24 25  16 17 25  17 25 26  18 19 27  19 27 28  19 20 29  19 28 29  20 21 29  21 29 30  21 22 31  21 30 31  22 23 31  23 31 32  23 24 33  23 32 33  24 25 33  25 33 34  25 26 35  25 34 35  27 28 37  27 36 37  28 29 37  29 37 38  29 30 39  29 38 39  30 31 39  31 39 40  31 32 41  31 40 41  32 33 41  33 41 42  33 34 43  33 42 43  34 35 43  35 43 44  36 37 45  37 45 46  37 38 47  37 46 47  38 39 47  39 47 48  39 40 49  39 48 49  40 41 49  41 49 50  41 42 51  41 50 51  42 43 51  43 51 52  43 44 53  43 52 53  45 46 55  45 54 55  46 47 55  47 55 56  47 48 57  47 56 57  48 49 57  49 57 58  49 50 59  49 58 59  50 51 59  51 59 60  51 52 61  51 60 61  52 53 61  53 61 62  54 55 63  55 63 64  55 56 65  55 64 65  56 57 65  57 65 66  57 58 67  57 66 67  58 59 67  59 67 68  59 60 69  59 68 69  60 61 69  61 69 70  61 62 71  61 70 71  63 64 73  63 72 73  64 65 73  65 73 74  65 66 75  65 74 75  66 67 75  67 75 76  67 68 77  67 76 77  68 69 77  69 77 78  69 70 79  69 78 79  70 71 79  71 79 80  </DataArray>
<DataArray  type="UInt32"  Name="offsets"  format="ascii">3 6 9 12 15 18 21 24 27 30 33 36 39 42 45 48 51 54 57 60 63 66 69 72 75 78 81 84 87 90 93 96 99 102 105 108 111 114 117 120 123 126 129 132 135 138 141 144 147 150 153 156 159 162 165 168 171 174 177 180 183 186 189 192 195 198 201 204 207 210 213 216 219 222 225 228 231 234 237 240 243 246 249 252 255 258 261 264 267 270 273 276 279 282 285 288 291 294 297 300 303 306 309 312 315 318 321 324 327 330 333 336 339 342 345 348 351 354 357 360 363 366 369 372 375 378 381 384 </DataArray>
<DataArray  type="UInt8"  Name="types"  format="ascii">5 5 5 5 5 5 5 5 5 5 5 5 5 5 5 5 5 5 5 5 5 5 5 5 5 5 5 5 5 5 5 5 5 5 5 5 5 5 5 5 5 5 5 5 5 5 5 5 5 5 5 5 5 5 5 5 5 5 5 5 5 5 5 5 5 5 5 5 5 5 5 5 5 5 5 5 5 5 5 5 5 5 5 5 5 5 5 5 5 5 5 5 5 5 5 5 5 5 5 5 5 5 5 5 5 5 5 5 5 5 5 5 5 5 5 5 5 5 5 5 5 5 5 5 5 5 5 5 </DataArray>
</Cells>
<PointData  Vectors="f_16"> 
<DataArray  type="Float64"  Name="f_16"  NumberOfComponents="3" format="ascii">2.0490561358437194e-05 -4.6540517981279032e-09 0.0000000000000000e+00  -1.2018899313137337e-06 8.6919997561367222e-11 0.0000000000000000e+00  1.0421443920769142e-06 -9.3208869843858765e-10 0.0000000000000000e+00  -8.2920194292307051e-06 6.9340610241144757e-10 0.0000000000000000e+00  -2.9384263310297381e-06 1.8171638391798447e-10 0.0000000000000000e+00  -4.7749304804320345e-06 -5.7890304933071181e-10 0.0000000000000000e+00  -5.1861731435661832e-06 -7.4969059401495640e-10 0.0000000000000000e+00  -5.9182505569883938e-06 -8.6246415631253063e-10 0.0000000000000000e+00  -1.2300872237491204e-06 3.2219164020492626e-11 0.0000000000000000e+00  6.5624702188084849e-01 -4.3072651286782157e-10 0.0000000000000000e+00  6.5719276112105585e-01 -1.2726125546403620e-04 0.0000000000000000e+00  6.5843001881046359e-01 1.3165287735599973e-04 0.0000000000000000e+00  6.5827876835559518e-01 -2.9599472894100786e-05 0.0000000000000000e+00  6.5890843780500163e-01 -1.9975174208856482e-05 0.0000000000000000e+00  6.5868431533470551e-01 2.2697367515498072e-05 0.0000000000000000e+00  6.5846664030764401e-01 4.4938324644621794e-06 0.0000000000000000e+00  6.5730691660265217e-01 2.8715864651366472e-05 0.0000000000000000e+00  6.5748322699436768e-01 -1.0853684111044127e-04 0.0000000000000000e+00  1.1249841015781674e+00 1.3723069638910321e-09 0.0000000000000000e+00  1.1256521020412833e+00 -6.3096480373540259e-04 0.0000000000000000e+00  1.1239102479164342e+00 -1.5592624861499206e-04 0.0000000000000000e+00  1.1265758662145924e+00 -1.1908097686366277e-04 0.0000000000000000e+00  1.1255986773891500e+00 4.6939400985104064e-06 0.0000000000000000e+00  1.1253424173655826e+00 1.2732782796511438e-04 0.0000000000000000e+00  1.1252113164879547e+00 1.8612455613635013e-04 0.0000000000000000e+00  1.1245569832881916e+00 2.4286098971713522e-04 0.0000000000000000e+00  1.1240475922020781e+00 7.7958588405031609e-05 0.0000000000000000e+00  1.4062394796536004e+00 2.4578084823007830e-10 0.0000000000000000e+00  1.4056241707640409e+00 -1.7579546304546722e-04 0.0000000000000000e+00  1.4069038356795147e+00 -1.3029870106381813e-04 0.0000000000000000e+00  1.4046090552027941e+00 -1.6484817927339289e-04 0.0000000000000000e+00  1.4071033925169474e+00 -1.9879940691234517e-04 0.0000000000000000e+00  1.4061318111235439e+00 8.4626201599248470e-05 0.0000000000000000e+00  1.4058272391326867e+00 2.2161424167298438e-04 0.0000000000000000e+00  1.4056088078241529e+00 2.4926637841963682e-04 0.0000000000000000e+00  1.4055236965577640e+00 7.4610184007330944e-05 0.0000000000000000e+00  1.4999818433266032e+00 8.6950394697619967e-10 0.0000000000000000e+00  1.5001776814255001e+00 -1.5690888698933068e-04 0.0000000000000000e+00  1.4989100470448764e+00 -1.8203877385633503e-04 0.0000000000000000e+00  1.4993708711838081e+00 -1.2198582958112561e-04 0.0000000000000000e+00  1.4972289419399896e+00 -5.7821754478158132e-05 0.0000000000000000e+00  1.4994243580300370e+00 9.4026034838962143e-05 0.0000000000000000e+00  1.4985552919204124e+00 2.9589311125636836e-04 0.0000000000000000e+00  1.4981037476825905e+00 4.7327794719393367e-04 0.0000000000000000e+00  1.4982070875926754e+00 3.4979910412184177e-04 0.0000000000000000e+00  1.4062361149965339e+00 2.6635881255333902e-10 0.0000000000000000e+00  1.4055313018406179e+00 -4.2298892282408361e-05 0.0000000000000000e+00  1.4059993555634707e+00 -2.5198865541513018e-04 0.0000000000000000e+00  1.4048491433111696e+00 -1.0179160753555950e-04 0.0000000000000000e+00  1.4063856312229368e+00 9.3740408395163574e-05 0.0000000000000000e+00  1.4037329294825136e+00 8.9180167470592634e-05 0.0000000000000000e+00  1.4067747138109092e+00 1.7221810514608622e-04 0.0000000000000000e+00  1.4052393429325671e+00 3.3777549551892072e-04 0.0000000000000000e+00  1.4051368763851699e+00 4.1970941243179509e-04 0.0000000000000000e+00  1.1249860152719404e+00 -5.2162412377182764e-10 0.0000000000000000e+00  1.1253801122160192e+00 2.0209906201760163e-04 0.0000000000000000e+00  1.1249214435161954e+00 -7.2015643481970190e-05 0.0000000000000000e+00  1.1246093451844297e+00 -8.1986880275792916e-05 0.0000000000000000e+00  1.1240601633897571e+00 -8.9932470972705133e-06 0.0000000000000000e+00  1.1249333372651513e+00 5.6349714765007481e-05 0.0000000000000000e+00  1.1227114908290485e+00 1.9016228376407093e-04 0.0000000000000000e+00  1.1251468855202549e+00 4.1733487474357645e-04 0.0000000000000000e+00  1.1241673133047627e+00 5.8784635647077645e-04 0.0000000000000000e+00  6.5624143887808306e-01 -2.4118781400815793e-10 0.0000000000000000e+00  6.5594733661674998e-01 2.1860687975622544e-05 0.0000000000000000e+00  6.5659948904114163e-01 -2.0221079655438699e-04 0.0000000000000000e+00  6.5627918769265037e-01 -2.2372077462532135e-05 0.0000000000000000e+00  6.5681748538274365e-01 -1.6872818484155838e-05 0.0000000000000000e+00  6.5583847972607467e-01 5.6154370684165747e-05 0.0000000000000000e+00  6.5811839860482824e-01 2.2234153695201787e-04 0.0000000000000000e+00  6.5571467007601125e-01 1.7691115364110732e-04 0.0000000000000000e+00  6.5998403705262787e-01 6.3322144306985208e-04 0.0000000000000000e+00  -7.0278505307869588e-06 -6.0599561237823552e-10 0.0000000000000000e+00  -7.2272593326096161e-06 -5.6810707631414154e-10 0.0000000000000000e+00  -4.6041239730363726e-06 -1.0915110559677633e-10 0.0000000000000000e+00  -6.2733328481347658e-06 9.9732852731603649e-10 0.0000000000000000e+00  -2.2727863474421544e-06 8.1188374236073356e-10 0.0000000000000000e+00  -6.9296189756131972e-06 -1.6826224799672455e-09 0.0000000000000000e+00  -7.0893893702885541e-06 6.1537985863007635e-11 0.0000000000000000e+00  4.8190379710588272e-07 9.9213012586327485e-10 0.0000000000000000e+00  -1.0277667242487423e-05 -4.4679778246580260e-09 0.0000000000000000e+00  </DataArray> 
</PointData> 
</Piece>
</UnstructuredGrid>
</VTKFile>