<?xml version="1.0"?>
<VTKFile type="UnstructuredGrid"  version="0.1"  >
<UnstructuredGrid>
<Piece  NumberOfPoints="81" NumberOfCells="128">
<Points>
<DataArray  type="Float64"  NumberOfComponents="3"  format="ascii">0 0 0  0.275 0 0  0.55 0 0  0.8250000000000001 0 0  1.1 0 0  1.375 0 0  1.65 0 0  1.925 0 0  2.2 0 0  0 0.05125 0  0.275 0.05125 0  0.55 0.05125 0  0.8250000000000001 0.05125 0  1.1 0.05125 0  1.375 0.05125 0  1.65 0.05125 0  1.925 0.05125 0  2.2 0.05125 0  0 0.1025 0  0.275 0.1025 0  0.55 0.1025 0  0.8250000000000001 0.1025 0  1.1 0.1025 0  1.375 0.1025 0  1.65 0.1025 0  1.925 0.1025 0  2.2 0.1025 0  0 0.15375 0  0.275 0.15375 0  0.55 0.15375 0  0.8250000000000001 0.15375 0  1.1 0.15375 0  1.375 0.15375 0  1.65 0.15375 0  1.925 0.15375 0  2.2 0.15375 0  0 0.205 0  0.275 0.205 0  0.55 0.205 0  0.8250000000000001 0.205 0  1.1 0.205 0  1.375 0.205 0  1.65 0.205 0  1.925 0.205 0  2.2 0.205 0  0 0.25625 0  0.275 0.25625 0  0.55 0.25625 0  0.8250000000000001 0.25625 0  1.1 0.25625 0  1.375 0.25625 0  1.65 0.25625 0  1.925 0.25625 0  2.2 0.25625 0  0 0.3075 0  0.275 0.3075 0  0.55 0.3075 0  0.8250000000000001 0.3075 0  1.1 0.3075 0  1.375 0.3075 0  1.65 0.3075 0  1.925 0.3075 0  2.2 0.3075 0  0 0.35875 0  0.275 0.35875 0  0.55 0.35875 0  0.8250000000000001 0.35875 0  1.1 0.35875 0  1.375 0.35875 0  1.65 0.35875 0  1.925 0.35875 0  2.2 0.35875 0  0 0.41 0  0.275 0.41 0  0.55 0.41 0  0.8250000000000001 0.41 0  1.1 0.41 0  1.375 0.41 0  1.65 0.41 0  1.925 0.41 0  2.2 0.41 0  </DataArray>
</Points>
<Cells>
<DataArray  type="UInt32"  Name="connectivity"  format="ascii">0 1 9  1 9 10  1 2 11  1 10 11  2 3 11  3 11 12  3 4 13  3 12 13  4 5 13  5 13 14  5 6 15  5 14 15  6 7 15  7 15 16  7 8 17  7 16 17  9 10 19  9 18 19  10 11 19  11 19 20  11 12 21  11 20 21  12 13 21  13 21 22  13 14 23  13 22 23  14 15 23  15 23 24  15 16 25  15 24 25  16 17 25  17 25 26  18 19 27  19 27 28  19 20 29  19 28 29  20 21 29  21 29 30  21 22 31  21 30 31  22 23 31  23 31 32  23 24 33  23 32 33  24 25 33  25 33 34  25 26 35  25 34 35  27 28 37  27 36 37  28 29 37  29 37 38  29 30 39  29 38 39  30 31 39  31 39 40  31 32 41  31 40 41  32 33 41  33 41 42  33 34 43  33 42 43  34 35 43  35 43 44  36 37 45  37 45 46  37 38 47  37 46 47  38 39 47  39 47 48  39 40 49  39 48 49  40 41 49  41 49 50  41 42 51  41 50 51  42 43 51  43 51 52  43 44 53  43 52 53  45 46 55  45 54 55  46 47 55  47 55 56  47 48 57  47 56 57  48 49 57  49 57 58  49 50 59  49 58 59  50 51 59  51 59 60  51 52 61  51 60 61  52 53 61  53 61 62  54 55 63  55 63 64  55 56 65  55 64 65  56 57 65  57 65 66  57 58 67  57 66 67  58 59 67  59 67 68  59 60 69  59 68 69  60 61 69  61 69 70  61 62 71  61 70 71  63 64 73  63 72 73  64 65 73  65 73 74  65 66 75  65 74 75  66 67 75  67 75 76  67 68 77  67 76 77  68 69 77  69 77 78  69 70 79  69 78 79  70 71 79  71 79 80  </DataArray>
<DataArray  type="UInt32"  Name="offsets"  format="ascii">3 6 9 12 15 18 21 24 27 30 33 36 39 42 45 48 51 54 57 60 63 66 69 72 75 78 81 84 87 90 93 96 99 102 105 108 111 114 117 120 123 126 129 132 135 138 141 144 147 150 153 156 159 162 165 168 171 174 177 180 183 186 189 192 195 198 201 204 207 210 213 216 219 222 225 228 231 234 237 240 243 246 249 252 255 258 261 264 267 270 273 276 279 282 285 288 291 294 297 300 303 306 309 312 315 318 321 324 327 330 333 336 339 342 345 348 351 354 357 360 363 366 369 372 375 378 381 384 </DataArray>
<DataArray  type="UInt8"  Name="types"  format="ascii">5 5 5 5 5 5 5 5 5 5 5 5 5 5 5 5 5 5 5 5 5 5 5 5 5 5 5 5 5 5 5 5 5 5 5 5 5 5 5 5 5 5 5 5 5 5 5 5 5 5 5 5 5 5 5 5 5 5 5 5 5 5 5 5 5 5 5 5 5 5 5 5 5 5 5 5 5 5 5 5 5 5 5 5 5 5 5 5 5 5 5 5 5 5 5 5 5 5 5 5 5 5 5 5 5 5 5 5 5 5 5 5 5 5 5 5 5 5 5 5 5 5 5 5 5 5 5 5 </DataArray>
</Cells>
<PointData  Vectors="f_16"> 
<DataArray  type="Float64"  Name="f_16"  NumberOfComponents="3" format="ascii">2.0480209423355079e-05 -2.0559279465095494e-09 0.0000000000000000e+00  -1.2048453075686914e-06 -1.7028275026652204e-09 0.0000000000000000e+00  1.0629775290056276e-06 -1.1703295137698309e-09 0.0000000000000000e+00  -8.2704338855722195e-06 1.6347536119924998e-09 0.0000000000000000e+00  -2.9436617452811589e-06 1.1274211071075700e-10 0.0000000000000000e+00  -4.7681504810343639e-06 5.7688697455395386e-09 0.0000000000000000e+00  -5.2423341488164826e-06 9.1888830793496986e-09 0.0000000000000000e+00  -5.9284685505606949e-06 2.7397055153902986e-08 0.0000000000000000e+00  -1.3516754543467139e-06 2.9028781133924195e-08 0.0000000000000000e+00  6.5624702350300979e-01 2.3595716039503818e-09 0.0000000000000000e+00  6.5739127858580915e-01 -1.2950275531956203e-04 0.0000000000000000e+00  6.5787953769408747e-01 2.2951483875028155e-04 0.0000000000000000e+00  6.5792673336011431e-01 8.9938857720081082e-05 0.0000000000000000e+00  6.5811012220467435e-01 -1.5100174282970486e-05 0.0000000000000000e+00  6.5879443506706337e-01 5.5135613843334825e-05 0.0000000000000000e+00  6.6296798160728632e-01 -1.1908088657040961e-03 0.0000000000000000e+00  6.8130444835917026e-01 -3.4337695926631726e-03 0.0000000000000000e+00  7.1366508896732794e-01 -4.9615999695800973e-03 0.0000000000000000e+00  1.1249841140639076e+00 -6.9681223672936761e-10 0.0000000000000000e+00  1.1254501527706604e+00 -6.2840850783275610e-04 0.0000000000000000e+00  1.1236589386673037e+00 3.5414546457209341e-05 0.0000000000000000e+00  1.1260957073208577e+00 -2.6548577999093830e-04 0.0000000000000000e+00  1.1258106186852452e+00 1.6130167046490159e-05 0.0000000000000000e+00  1.1250573668624539e+00 3.5164956824170878e-04 0.0000000000000000e+00  1.1251920394494896e+00 -1.9042967304278582e-03 0.0000000000000000e+00  1.1244016023595069e+00 -6.1087499629504599e-03 0.0000000000000000e+00  1.1293023828338793e+00 -1.0099977220945100e-02 0.0000000000000000e+00  1.4062395253119169e+00 -2.6987811765045849e-09 0.0000000000000000e+00  1.4051881270067434e+00 -2.0243120393017444e-05 0.0000000000000000e+00  1.4061372908573611e+00 1.5397147419618422e-05 0.0000000000000000e+00  1.4054238033770927e+00 -4.4197925991818247e-04 0.0000000000000000e+00  1.4084336812844327e+00 1.3414284834372325e-04 0.0000000000000000e+00  1.4055040834048209e+00 9.9628449111457295e-05 0.0000000000000000e+00  1.4028651239629371e+00 -8.3601781780986821e-04 0.0000000000000000e+00  1.3914653896643010e+00 -3.8964363871610667e-03 0.0000000000000000e+00  1.3651606661331732e+00 -7.7242847324558283e-03 0.0000000000000000e+00  1.4999818483870158e+00 7.2987555732797195e-10 0.0000000000000000e+00  1.4998192058750304e+00 -1.5149793745476098e-04 0.0000000000000000e+00  1.4984192407173036e+00 -1.7414319218386250e-04 0.0000000000000000e+00  1.5010703525205975e+00 -1.0719103092918094e-04 0.0000000000000000e+00  1.4985248501397690e+00 -3.1357623487144751e-05 0.0000000000000000e+00  1.4985807793185031e+00 1.4602731854115698e-04 0.0000000000000000e+00  1.4943463232827661e+00 2.8446656718603369e-04 0.0000000000000000e+00  1.4821176498533331e+00 3.5182240856986393e-04 0.0000000000000000e+00  1.4445712976074829e+00 9.5381391257419327e-05 0.0000000000000000e+00  1.4062361639853667e+00 3.7491010171179826e-09 0.0000000000000000e+00  1.4051033409485807e+00 -1.9156200555843096e-04 0.0000000000000000e+00  1.4052564174051974e+00 -3.9583855138086076e-04 0.0000000000000000e+00  1.4056799025996796e+00 2.0166910113223572e-04 0.0000000000000000e+00  1.4077889369274663e+00 -1.8985813001872346e-04 0.0000000000000000e+00  1.4032918220726318e+00 1.4263641144460654e-04 0.0000000000000000e+00  1.4040450826437343e+00 1.2778068953155327e-03 0.0000000000000000e+00  1.3912375918006934e+00 4.2437304138029106e-03 0.0000000000000000e+00  1.3645614801132222e+00 7.6429308223442266e-03 0.0000000000000000e+00  1.1249860199325983e+00 2.6771833805007965e-09 0.0000000000000000e+00  1.1251843372009089e+00 2.0267493756126207e-04 0.0000000000000000e+00  1.1246995705982754e+00 -2.5316319842857743e-04 0.0000000000000000e+00  1.1241929651386391e+00 8.2588233838892751e-05 0.0000000000000000e+00  1.1244103927726146e+00 8.8840717960329961e-06 0.0000000000000000e+00  1.1249502292159124e+00 -1.1654621459798870e-04 0.0000000000000000e+00  1.1231265950937175e+00 2.2606086821376804e-03 0.0000000000000000e+00  1.1252505821538914e+00 6.5910071485592017e-03 0.0000000000000000e+00  1.1287330368741992e+00 1.0398551385914419e-02 0.0000000000000000e+00  6.5624147080385864e-01 -2.4003298099867075e-09 0.0000000000000000e+00  6.5613460770838428e-01 2.3344676324112103e-05 0.0000000000000000e+00  6.5606397148945506e-01 -2.9696660938902640e-04 0.0000000000000000e+00  6.5599846159898945e-01 -1.3340352970665791e-04 0.0000000000000000e+00  6.5617025074338020e-01 -1.4238154391714833e-05 0.0000000000000000e+00  6.5625879136454734e-01 2.6804697628979497e-05 0.0000000000000000e+00  6.6306323361059760e-01 1.4134561265322443e-03 0.0000000000000000e+00  6.7979901942358012e-01 3.5771581928428892e-03 0.0000000000000000e+00  7.1528026564724567e-01 5.3316045228600419e-03 0.0000000000000000e+00  -7.0331070854626848e-06 -3.7587289732176714e-09 0.0000000000000000e+00  -7.2330397100618388e-06 5.3825275529544508e-10 0.0000000000000000e+00  -4.5894349657299977e-06 4.7108433499361769e-11 0.0000000000000000e+00  -6.2778509584858351e-06 -2.5405466359600413e-10 0.0000000000000000e+00  -2.3016452976812720e-06 1.0932854206357053e-08 0.0000000000000000e+00  -6.9349797150354465e-06 -9.1647856573447153e-09 0.0000000000000000e+00  -7.0016650444920483e-06 -3.2004519157153346e-09 0.0000000000000000e+00  6.1444798834773541e-07 1.6030214974492246e-08 0.0000000000000000e+00  -1.0235372554735723e-05 -7.3582855823619469e-08 0.0000000000000000e+00  </DataArray> 
</PointData> 
</Piece>
</UnstructuredGrid>
</VTKFile>