<?xml version="1.0"?>
<VTKFile type="UnstructuredGrid"  version="0.1"  >
<UnstructuredGrid>
<Piece  NumberOfPoints="81" NumberOfCells="128">
<Points>
<DataArray  type="Float64"  NumberOfComponents="3"  format="ascii">0 0 0  0.275 0 0  0.55 0 0  0.8250000000000001 0 0  1.1 0 0  1.375 0 0  1.65 0 0  1.925 0 0  2.2 0 0  0 0.05125 0  0.275 0.05125 0  0.55 0.05125 0  0.8250000000000001 0.05125 0  1.1 0.05125 0  1.375 0.05125 0  1.65 0.05125 0  1.925 0.05125 0  2.2 0.05125 0  0 0.1025 0  0.275 0.1025 0  0.55 0.1025 0  0.8250000000000001 0.1025 0  1.1 0.1025 0  1.375 0.1025 0  1.65 0.1025 0  1.925 0.1025 0  2.2 0.1025 0  0 0.15375 0  0.275 0.15375 0  0.55 0.15375 0  0.8250000000000001 0.15375 0  1.1 0.15375 0  1.375 0.15375 0  1.65 0.15375 0  1.925 0.15375 0  2.2 0.15375 0  0 0.205 0  0.275 0.205 0  0.55 0.205 0  0.8250000000000001 0.205 0  1.1 0.205 0  1.375 0.205 0  1.65 0.205 0  1.925 0.205 0  2.2 0.205 0  0 0.25625 0  0.275 0.25625 0  0.55 0.25625 0  0.8250000000000001 0.25625 0  1.1 0.25625 0  1.375 0.25625 0  1.65 0.25625 0  1.925 0.25625 0  2.2 0.25625 0  0 0.3075 0  0.275 0.3075 0  0.55 0.3075 0  0.8250000000000001 0.3075 0  1.1 0.3075 0  1.375 0.3075 0  1.65 0.3075 0  1.925 0.3075 0  2.2 0.3075 0  0 0.35875 0  0.275 0.35875 0  0.55 0.35875 0  0.8250000000000001 0.35875 0  1.1 0.35875 0  1.375 0.35875 0  1.65 0.35875 0  1.925 0.35875 0  2.2 0.35875 0  0 0.41 0  0.275 0.41 0  0.55 0.41 0  0.8250000000000001 0.41 0  1.1 0.41 0  1.375 0.41 0  1.65 0.41 0  1.925 0.41 0  2.2 0.41 0  </DataArray>
</Points>
<Cells>
<DataArray  type="UInt32"  Name="connectivity"  format="ascii">0 1 9  1 9 10  1 2 11  1 10 11  2 3 11  3 11 12  3 4 13  3 12 13  4 5 13  5 13 14  5 6 15  5 14 15  6 7 15  7 15 16  7 8 17  7 16 17  9 10 19  9 18 19  10 11 19  11 19 20  11 12 21  11 20 21  12 13 21  13 21 22  13 14 23  13 22 23  14 15 23  15 23 24  15 16 25  15 24 25  16 17 25  17 25 26  18 19 27  19 27 28  19 20 29  19 28 29  20 21 29  21 29 30  21 22 31  21 30 31  22 23 31  23 31 32  23 24 33  23 32 33  24 25 33  25 33 34  25 26 35  25 34 35  27 28 37  27 36 37  28 29 37  29 37 38  29 30 39  29 38 39  30 31 39  31 39 40  31 32 41  31 40 41  32 33 41  33 41 42  33 34 43  33 42 43  34 35 43  35 43 44  36 37 45  37 45 46  37 38 47  37 46 47  38 39 47  39 47 48  39 40 49  39 48 49  40 41 49  41 49 50  41 42 51  41 50 51  42 43 51  43 51 52  43 44 53  43 52 53  45 46 55  45 54 55  46 47 55  47 55 56  47 48 57  47 56 57  48 49 57  49 57 58  49 50 59  49 58 59  50 51 59  51 59 60  51 52 61  51 60 61  52 53 61  53 61 62  54 55 63  55 63 64  55 56 65  55 64 65  56 57 65  57 65 66  57 58 67  57 66 67  58 59 67  59 67 68  59 60 69  59 68 69  60 61 69  61 69 70  61 62 71  61 70 71  63 64 73  63 72 73  64 65 73  65 73 74  65 66 75  65 74 75  66 67 75  67 75 76  67 68 77  67 76 77  68 69 77  69 77 78  69 70 79  69 78 79  70 71 79  71 79 80  </DataArray>
<DataArray  type="UInt32"  Name="offsets"  format="ascii">3 6 9 12 15 18 21 24 27 30 33 36 39 42 45 48 51 54 57 60 63 66 69 72 75 78 81 84 87 90 93 96 99 102 105 108 111 114 117 120 123 126 129 132 135 138 141 144 147 150 153 156 159 162 165 168 171 174 177 180 183 186 189 192 195 198 201 204 207 210 213 216 219 222 225 228 231 234 237 240 243 246 249 252 255 258 261 264 267 270 273 276 279 282 285 288 291 294 297 300 303 306 309 312 315 318 321 324 327 330 333 336 339 342 345 348 351 354 357 360 363 366 369 372 375 378 381 384 </DataArray>
<DataArray  type="UInt8"  Name="types"  format="ascii">5 5 5 5 5 5 5 5 5 5 5 5 5 5 5 5 5 5 5 5 5 5 5 5 5 5 5 5 5 5 5 5 5 5 5 5 5 5 5 5 5 5 5 5 5 5 5 5 5 5 5 5 5 5 5 5 5 5 5 5 5 5 5 5 5 5 5 5 5 5 5 5 5 5 5 5 5 5 5 5 5 5 5 5 5 5 5 5 5 5 5 5 5 5 5 5 5 5 5 5 5 5 5 5 5 5 5 5 5 5 5 5 5 5 5 5 5 5 5 5 5 5 5 5 5 5 5 5 </DataArray>
</Cells>
<PointData  Vectors="f_16"> 
<DataArray  type="Float64"  Name="f_16"  NumberOfComponents="3" format="ascii">2.0487779437020940e-05 -3.9941014884607007e-09 0.0000000000000000e+00  -1.1993186233781284e-06 -2.2210307180570342e-10 0.0000000000000000e+00  1.0495056168663109e-06 -7.5077717681997146e-10 0.0000000000000000e+00  -8.2920218869596870e-06 7.8777934572978911e-10 0.0000000000000000e+00  -2.9400707772540373e-06 -1.6973519231772576e-09 0.0000000000000000e+00  -4.7686783427088846e-06 2.5387626271082882e-09 0.0000000000000000e+00  -5.2000761323339536e-06 7.3176481399573558e-09 0.0000000000000000e+00  -5.8944005280005930e-06 1.2632033809305452e-08 0.0000000000000000e+00  -1.1761929117408240e-06 9.0303697220429497e-09 0.0000000000000000e+00  6.5624702444645777e-01 -1.1717240125780604e-10 0.0000000000000000e+00  6.5700637148001750e-01 -1.1715871516650432e-04 0.0000000000000000e+00  6.5825016429606842e-01 1.6345299218842576e-04 0.0000000000000000e+00  6.5840040238920139e-01 -7.4772519947516948e-05 0.0000000000000000e+00  6.5857390179814734e-01 3.0783847461707072e-06 0.0000000000000000e+00  6.5877793710384458e-01 -4.2056147140517529e-05 0.0000000000000000e+00  6.5859515991519113e-01 -3.8273202883393819e-05 0.0000000000000000e+00  6.6171108581546256e-01 -7.5749101761681936e-04 0.0000000000000000e+00  6.7574472986346346e-01 -3.2094341675416639e-03 0.0000000000000000e+00  1.1249841044075919e+00 -8.7153017526879021e-10 0.0000000000000000e+00  1.1254549485463796e+00 -5.8796672167553312e-04 0.0000000000000000e+00  1.1239210901860530e+00 -1.8490416407356688e-04 0.0000000000000000e+00  1.1266527437180236e+00 -2.0510183304838533e-04 0.0000000000000000e+00  1.1257423439346621e+00 9.4556957702381585e-05 0.0000000000000000e+00  1.1253401381091483e+00 2.6526406895270300e-04 0.0000000000000000e+00  1.1249966970610750e+00 -8.3917512459393229e-05 0.0000000000000000e+00  1.1251657443826784e+00 -1.0628331846122634e-03 0.0000000000000000e+00  1.1251416103202070e+00 -4.5243389928706799e-03 0.0000000000000000e+00  1.4062394901571356e+00 -2.0968316984986877e-09 0.0000000000000000e+00  1.4053955188566560e+00 -1.3269563756042866e-04 0.0000000000000000e+00  1.4067124400674460e+00 -1.8748049674048467e-04 0.0000000000000000e+00  1.4051160400954741e+00 -2.0700618293357698e-04 0.0000000000000000e+00  1.4075851630698735e+00 2.0523637568536424e-05 0.0000000000000000e+00  1.4056475372313628e+00 1.5609755935513283e-04 0.0000000000000000e+00  1.4052903738294322e+00 3.2954228520205041e-05 0.0000000000000000e+00  1.4042886891720763e+00 -8.1483210420519073e-04 0.0000000000000000e+00  1.3941906744483112e+00 -3.1504908352676798e-03 0.0000000000000000e+00  1.4999818430024359e+00 8.3393810202042642e-10 0.0000000000000000e+00  1.4998305557895459e+00 -1.5478816645428579e-04 0.0000000000000000e+00  1.4987930826312494e+00 -1.7900923237181227e-04 0.0000000000000000e+00  1.5005219270618402e+00 -1.1609246668186905e-04 0.0000000000000000e+00  1.4975841460616817e+00 -4.4410017310312997e-05 0.0000000000000000e+00  1.4984778937325456e+00 1.1820804957497855e-04 0.0000000000000000e+00  1.4982030672557396e+00 2.9996696922414179e-04 0.0000000000000000e+00  1.4966659313718349e+00 4.4190005460631725e-04 0.0000000000000000e+00  1.4833414978322303e+00 2.4365714278181140e-04 0.0000000000000000e+00  1.4062361256552962e+00 2.8421573692654724e-09 0.0000000000000000e+00  1.4053075260482017e+00 -8.2366576898770905e-05 0.0000000000000000e+00  1.4058118028481497e+00 -1.9409242147387935e-04 0.0000000000000000e+00  1.4053636146455899e+00 -4.6566893360513022e-05 0.0000000000000000e+00  1.4069110168360477e+00 -9.7722919238309682e-05 0.0000000000000000e+00  1.4033448935903790e+00 5.3919756204573586e-05 0.0000000000000000e+00  1.4063577619305705e+00 3.9008948857490735e-04 0.0000000000000000e+00  1.4040280134843817e+00 1.3194728193796055e-03 0.0000000000000000e+00  1.3937767776474286e+00 3.3788643898491006e-03 0.0000000000000000e+00  1.1249860146349115e+00 2.3019120884350702e-09 0.0000000000000000e+00  1.1251848976953698e+00 1.6084817218758564e-04 0.0000000000000000e+00  1.1249494229788162e+00 -3.8931348480564470e-05 0.0000000000000000e+00  1.1247169240184502e+00 1.0668256126845885e-05 0.0000000000000000e+00  1.1242805343081348e+00 -8.1666922531476341e-05 0.0000000000000000e+00  1.1250846659958986e+00 -5.7522529911034204e-05 0.0000000000000000e+00  1.1227262029290361e+00 4.6240193131060397e-04 0.0000000000000000e+00  1.1259789686731434e+00 1.6740873382970122e-03 0.0000000000000000e+00  1.1251013097668114e+00 5.0162202208214280e-03 0.0000000000000000e+00  6.5624144743939183e-01 -2.0765417557229655e-10 0.0000000000000000e+00  6.5576067334605526e-01 1.2268869974424538e-05 0.0000000000000000e+00  6.5642313095182869e-01 -2.3364997223990038e-04 0.0000000000000000e+00  6.5643599922272067e-01 2.5289950386071420e-05 0.0000000000000000e+00  6.5657103443765186e-01 -3.5275496139686298e-05 0.0000000000000000e+00  6.5610132549772537e-01 1.2403773551776954e-04 0.0000000000000000e+00  6.5848315510740574e-01 2.6596038979745151e-04 0.0000000000000000e+00  6.6024043526444409e-01 9.3968393830914086e-04 0.0000000000000000e+00  6.7788566317980592e-01 3.6478719769925854e-03 0.0000000000000000e+00  -7.0292499079708754e-06 -1.4234791913723802e-09 0.0000000000000000e+00  -7.2255744721098302e-06 -5.7095507063519822e-10 0.0000000000000000e+00  -4.6004665290448744e-06 -1.0592237441043454e-09 0.0000000000000000e+00  -6.2794194699516624e-06 2.7497297744289653e-10 0.0000000000000000e+00  -2.2816182869546027e-06 3.5472730113415859e-09 0.0000000000000000e+00  -6.9285703956519743e-06 -5.0859447055852804e-09 0.0000000000000000e+00  -7.0608487720379866e-06 -1.5196932356722635e-09 0.0000000000000000e+00  5.3887255010322207e-07 5.9133067501420938e-09 0.0000000000000000e+00  -1.0205894429811170e-05 -2.8143416951914737e-08 0.0000000000000000e+00  </DataArray> 
</PointData> 
</Piece>
</UnstructuredGrid>
</VTKFile>