<?xml version="1.0"?>
<VTKFile type="UnstructuredGrid"  version="0.1"  >
<UnstructuredGrid>
<Piece  NumberOfPoints="81" NumberOfCells="128">
<Points>
<DataArray  type="Float64"  NumberOfComponents="3"  format="ascii">0 0 0  0.275 0 0  0.55 0 0  0.8250000000000001 0 0  1.1 0 0  1.375 0 0  1.65 0 0  1.925 0 0  2.2 0 0  0 0.05125 0  0.275 0.05125 0  0.55 0.05125 0  0.8250000000000001 0.05125 0  1.1 0.05125 0  1.375 0.05125 0  1.65 0.05125 0  1.925 0.05125 0  2.2 0.05125 0  0 0.1025 0  0.275 0.1025 0  0.55 0.1025 0  0.8250000000000001 0.1025 0  1.1 0.1025 0  1.375 0.1025 0  1.65 0.1025 0  1.925 0.1025 0  2.2 0.1025 0  0 0.15375 0  0.275 0.15375 0  0.55 0.15375 0  0.8250000000000001 0.15375 0  1.1 0.15375 0  1.375 0.15375 0  1.65 0.15375 0  1.925 0.15375 0  2.2 0.15375 0  0 0.205 0  0.275 0.205 0  0.55 0.205 0  0.8250000000000001 0.205 0  1.1 0.205 0  1.375 0.205 0  1.65 0.205 0  1.925 0.205 0  2.2 0.205 0  0 0.25625 0  0.275 0.25625 0  0.55 0.25625 0  0.8250000000000001 0.25625 0  1.1 0.25625 0  1.375 0.25625 0  1.65 0.25625 0  1.925 0.25625 0  2.2 0.25625 0  0 0.3075 0  0.275 0.3075 0  0.55 0.3075 0  0.8250000000000001 0.3075 0  1.1 0.3075 0  1.375 0.3075 0  1.65 0.3075 0  1.925 0.3075 0  2.2 0.3075 0  0 0.35875 0  0.275 0.35875 0  0.55 0.35875 0  0.8250000000000001 0.35875 0  1.1 0.35875 0  1.375 0.35875 0  1.65 0.35875 0  1.925 0.35875 0  2.2 0.35875 0  0 0.41 0  0.275 0.41 0  0.55 0.41 0  0.8250000000000001 0.41 0  1.1 0.41 0  1.375 0.41 0  1.65 0.41 0  1.925 0.41 0  2.2 0.41 0  </DataArray>
</Points>
<Cells>
<DataArray  type="UInt32"  Name="connectivity"  format="ascii">0 1 9  1 9 10  1 2 11  1 10 11  2 3 11  3 11 12  3 4 13  3 12 13  4 5 13  5 13 14  5 6 15  5 14 15  6 7 15  7 15 16  7 8 17  7 16 17  9 10 19  9 18 19  10 11 19  11 19 20  11 12 21  11 20 21  12 13 21  13 21 22  13 14 23  13 22 23  14 15 23  15 23 24  15 16 25  15 24 25  16 17 25  17 25 26  18 19 27  19 27 28  19 20 29  19 28 29  20 21 29  21 29 30  21 22 31  21 30 31  22 23 31  23 31 32  23 24 33  23 32 33  24 25 33  25 33 34  25 26 35  25 34 35  27 28 37  27 36 37  28 29 37  29 37 38  29 30 39  29 38 39  30 31 39  31 39 40  31 32 41  31 40 41  32 33 41  33 41 42  33 34 43  33 42 43  34 35 43  35 43 44  36 37 45  37 45 46  37 38 47  37 46 47  38 39 47  39 47 48  39 40 49  39 48 49  40 41 49  41 49 50  41 42 51  41 50 51  42 43 51  43 51 52  43 44 53  43 52 53  45 46 55  45 54 55  46 47 55  47 55 56  47 48 57  47 56 57  48 49 57  49 57 58  49 50 59  49 58 59  50 51 59  51 59 60  51 52 61  51 60 61  52 53 61  53 61 62  54 55 63  55 63 64  55 56 65  55 64 65  56 57 65  57 65 66  57 58 67  57 66 67  58 59 67  59 67 68  59 60 69  59 68 69  60 61 69  61 69 70  61 62 71  61 70 71  63 64 73  63 72 73  64 65 73  65 73 74  65 66 75  65 74 75  66 67 75  67 75 76  67 68 77  67 76 77  68 69 77  69 77 78  69 70 79  69 78 79  70 71 79  71 79 80  </DataArray>
<DataArray  type="UInt32"  Name="offsets"  format="ascii">3 6 9 12 15 18 21 24 27 30 33 36 39 42 45 48 51 54 57 60 63 66 69 72 75 78 81 84 87 90 93 96 99 102 105 108 111 114 117 120 123 126 129 132 135 138 141 144 147 150 153 156 159 162 165 168 171 174 177 180 183 186 189 192 195 198 201 204 207 210 213 216 219 222 225 228 231 234 237 240 243 246 249 252 255 258 261 264 267 270 273 276 279 282 285 288 291 294 297 300 303 306 309 312 315 318 321 324 327 330 333 336 339 342 345 348 351 354 357 360 363 366 369 372 375 378 381 384 </DataArray>
<DataArray  type="UInt8"  Name="types"  format="ascii">5 5 5 5 5 5 5 5 5 5 5 5 5 5 5 5 5 5 5 5 5 5 5 5 5 5 5 5 5 5 5 5 5 5 5 5 5 5 5 5 5 5 5 5 5 5 5 5 5 5 5 5 5 5 5 5 5 5 5 5 5 5 5 5 5 5 5 5 5 5 5 5 5 5 5 5 5 5 5 5 5 5 5 5 5 5 5 5 5 5 5 5 5 5 5 5 5 5 5 5 5 5 5 5 5 5 5 5 5 5 5 5 5 5 5 5 5 5 5 5 5 5 5 5 5 5 5 5 </DataArray>
</Cells>
<PointData  Vectors="f_16"> 
<DataArray  type="Float64"  Name="f_16"  NumberOfComponents="3" format="ascii">2.0489626251792235e-05 -4.3611225082931047e-09 0.0000000000000000e+00  -1.2010961233749025e-06 -3.5683883862025627e-11 0.0000000000000000e+00  1.0439525173521655e-06 -9.2964048295558413e-10 0.0000000000000000e+00  -8.2930388844232472e-06 9.9786991537275025e-10 0.0000000000000000e+00  -2.9405838308991626e-06 -7.5439292479839956e-11 0.0000000000000000e+00  -4.7730799147036784e-06 -8.2602385406014831e-10 0.0000000000000000e+00  -5.1844745641539657e-06 -2.7800891499826828e-10 0.0000000000000000e+00  -5.9227812103827484e-06 -4.8224679541533282e-10 0.0000000000000000e+00  -1.2402512932713106e-06 1.8132818995779077e-10 0.0000000000000000e+00  6.5624702220789810e-01 -3.0300759578897558e-10 0.0000000000000000e+00  6.5712874310279457e-01 -1.2812379863236508e-04 0.0000000000000000e+00  6.5836119637865853e-01 1.3509332331801958e-04 0.0000000000000000e+00  6.5821017476183730e-01 -3.3578973809574844e-05 0.0000000000000000e+00  6.5875681271779174e-01 -1.9573465851053734e-05 0.0000000000000000e+00  6.5863188350839541e-01 3.6101647179028161e-05 0.0000000000000000e+00  6.5833570334414560e-01 3.3046760377718928e-06 0.0000000000000000e+00  6.5748883545868697e-01 2.6200854979966175e-05 0.0000000000000000e+00  6.5748744284000804e-01 -3.6907881799742475e-05 0.0000000000000000e+00  1.1249841008749215e+00 8.1325577841385818e-10 0.0000000000000000e+00  1.1255476469136301e+00 -6.1823453100725428e-04 0.0000000000000000e+00  1.1238718037243547e+00 -1.5577435937304173e-04 0.0000000000000000e+00  1.1264700409878374e+00 -1.3954805848804394e-04 0.0000000000000000e+00  1.1256229009607646e+00 1.4274957465033316e-05 0.0000000000000000e+00  1.1252525851247905e+00 1.8788407905850099e-04 0.0000000000000000e+00  1.1251740508774630e+00 1.4561013160088577e-04 0.0000000000000000e+00  1.1246325849079237e+00 2.0818402414919524e-04 0.0000000000000000e+00  1.1241421931638589e+00 1.4782278507915800e-04 0.0000000000000000e+00  1.4062394803972997e+00 -2.2302723574501931e-10 0.0000000000000000e+00  1.4055692786983329e+00 -1.5948872655488342e-04 0.0000000000000000e+00  1.4068339905447695e+00 -1.5097782428931129e-04 0.0000000000000000e+00  1.4047662067953004e+00 -1.8700504817957794e-04 0.0000000000000000e+00  1.4072261887212780e+00 -1.6840011976444307e-04 0.0000000000000000e+00  1.4060631252469713e+00 1.0394816027930646e-04 0.0000000000000000e+00  1.4057467314679271e+00 1.5291984731525537e-04 0.0000000000000000e+00  1.4056714207036556e+00 2.1811342608770549e-04 0.0000000000000000e+00  1.4055126883991438e+00 1.3267911971471269e-04 0.0000000000000000e+00  1.4999818418968991e+00 8.7994877943518235e-10 0.0000000000000000e+00  1.5000431560555016e+00 -1.5696611857092128e-04 0.0000000000000000e+00  1.4988995719009610e+00 -1.8321521294701907e-04 0.0000000000000000e+00  1.4996575254314175e+00 -1.2657922125881480e-04 0.0000000000000000e+00  1.4973552632998892e+00 -6.4207495245443725e-05 0.0000000000000000e+00  1.4992495978382858e+00 8.7040355481984391e-05 0.0000000000000000e+00  1.4985173862879060e+00 2.8707586885999683e-04 0.0000000000000000e+00  1.4981595917871549e+00 4.6471355261138949e-04 0.0000000000000000e+00  1.4981273099177284e+00 3.4977931205496421e-04 0.0000000000000000e+00  1.4062361156322269e+00 7.8070659198352420e-10 0.0000000000000000e+00  1.4054775810481737e+00 -5.8865423358307415e-05 0.0000000000000000e+00  1.4059318954910995e+00 -2.3191410536999396e-04 0.0000000000000000e+00  1.4049947188105227e+00 -8.7155613673071372e-05 0.0000000000000000e+00  1.4064926888497751e+00 5.2374945517213986e-05 0.0000000000000000e+00  1.4036396340572437e+00 5.5865732302030621e-05 0.0000000000000000e+00  1.4066436257155306e+00 2.2099881879572610e-04 0.0000000000000000e+00  1.4052223483860753e+00 3.5636322512502773e-04 0.0000000000000000e+00  1.4050396456360830e+00 3.6805324787482480e-04 0.0000000000000000e+00  1.1249860142352213e+00 1.2729170025814736e-10 0.0000000000000000e+00  1.1252786380839148e+00 1.8908933850293833e-04 0.0000000000000000e+00  1.1248806275079291e+00 -7.3481222739723486e-05 0.0000000000000000e+00  1.1244957781845168e+00 -6.5862656561435469e-05 0.0000000000000000e+00  1.1240536799250713e+00 -2.6386281778048324e-05 0.0000000000000000e+00  1.1247906376643202e+00 -1.3876732728002222e-05 0.0000000000000000e+00  1.1225765708064228e+00 2.1981873090188455e-04 0.0000000000000000e+00  1.1250832724192836e+00 4.4530231957011463e-04 0.0000000000000000e+00  1.1241025476990485e+00 5.2168678765778323e-04 0.0000000000000000e+00  6.5624143956773873e-01 -3.0650355434266484e-10 0.0000000000000000e+00  6.5588375527235432e-01 2.2399044315588390e-05 0.0000000000000000e+00  6.5652841262874695e-01 -2.0581553296699170e-04 0.0000000000000000e+00  6.5619866454959552e-01 -1.9453256967852058e-05 0.0000000000000000e+00  6.5663788549373492e-01 -2.0388056060542254e-05 0.0000000000000000e+00  6.5572395289106966e-01 3.9265861382940424e-05 0.0000000000000000e+00  6.5788807729206256e-01 2.2048143460913974e-04 0.0000000000000000e+00  6.5576549380480320e-01 1.7841416411544598e-04 0.0000000000000000e+00  6.5986901022117450e-01 5.6818499558265170e-04 0.0000000000000000e+00  -7.0284302152166714e-06 -8.8938614715330991e-10 0.0000000000000000e+00  -7.2263710904649439e-06 -4.9114247003581688e-10 0.0000000000000000e+00  -4.6028130028190814e-06 -2.8104820845763155e-10 0.0000000000000000e+00  -6.2745338050228118e-06 7.8462515387897478e-10 0.0000000000000000e+00  -2.2757108805922888e-06 1.2057057459244872e-09 0.0000000000000000e+00  -6.9277712115890969e-06 -1.3519931395866203e-09 0.0000000000000000e+00  -7.0867128001002659e-06 -5.5525616425184159e-10 0.0000000000000000e+00  4.7779816814084160e-07 3.4666002709369564e-10 0.0000000000000000e+00  -1.0284934829611955e-05 -4.5710590134901675e-09 0.0000000000000000e+00  </DataArray> 
</PointData> 
</Piece>
</UnstructuredGrid>
</VTKFile>