<?xml version="1.0"?>
<VTKFile type="UnstructuredGrid"  version="0.1"  >
<UnstructuredGrid>
<Piece  NumberOfPoints="81" NumberOfCells="128">
<Points>
<DataArray  type="Float64"  NumberOfComponents="3"  format="ascii">0 0 0  0.275 0 0  0.55 0 0  0.8250000000000001 0 0  1.1 0 0  1.375 0 0  1.65 0 0  1.925 0 0  2.2 0 0  0 0.05125 0  0.275 0.05125 0  0.55 0.05125 0  0.8250000000000001 0.05125 0  1.1 0.05125 0  1.375 0.05125 0  1.65 0.05125 0  1.925 0.05125 0  2.2 0.05125 0  0 0.1025 0  0.275 0.1025 0  0.55 0.1025 0  0.8250000000000001 0.1025 0  1.1 0.1025 0  1.375 0.1025 0  1.65 0.1025 0  1.925 0.1025 0  2.2 0.1025 0  0 0.15375 0  0.275 0.15375 0  0.55 0.15375 0  0.8250000000000001 0.15375 0  1.1 0.15375 0  1.375 0.15375 0  1.65 0.15375 0  1.925 0.15375 0  2.2 0.15375 0  0 0.205 0  0.275 0.205 0  0.55 0.205 0  0.8250000000000001 0.205 0  1.1 0.205 0  1.375 0.205 0  1.65 0.205 0  1.925 0.205 0  2.2 0.205 0  0 0.25625 0  0.275 0.25625 0  0.55 0.25625 0  0.8250000000000001 0.25625 0  1.1 0.25625 0  1.375 0.25625 0  1.65 0.25625 0  1.925 0.25625 0  2.2 0.25625 0  0 0.3075 0  0.275 0.3075 0  0.55 0.3075 0  0.8250000000000001 0.3075 0  1.1 0.3075 0  1.375 0.3075 0  1.65 0.3075 0  1.925 0.3075 0  2.2 0.3075 0  0 0.35875 0  0.275 0.35875 0  0.55 0.35875 0  0.8250000000000001 0.35875 0  1.1 0.35875 0  1.375 0.35875 0  1.65 0.35875 0  1.925 0.35875 0  2.2 0.35875 0  0 0.41 0  0.275 0.41 0  0.55 0.41 0  0.8250000000000001 0.41 0  1.1 0.41 0  1.375 0.41 0  1.65 0.41 0  1.925 0.41 0  2.2 0.41 0  </DataArray>
</Points>
<Cells>
<DataArray  type="UInt32"  Name="connectivity"  format="ascii">0 1 9  1 9 10  1 2 11  1 10 11  2 3 11  3 11 12  3 4 13  3 12 13  4 5 13  5 13 14  5 6 15  5 14 15  6 7 15  7 15 16  7 8 17  7 16 17  9 10 19  9 18 19  10 11 19  11 19 20  11 12 21  11 20 21  12 13 21  13 21 22  13 14 23  13 22 23  14 15 23  15 23 24  15 16 25  15 24 25  16 17 25  17 25 26  18 19 27  19 27 28  19 20 29  19 28 29  20 21 29  21 29 30  21 22 31  21 30 31  22 23 31  23 31 32  23 24 33  23 32 33  24 25 33  25 33 34  25 26 35  25 34 35  27 28 37  27 36 37  28 29 37  29 37 38  29 30 39  29 38 39  30 31 39  31 39 40  31 32 41  31 40 41  32 33 41  33 41 42  33 34 43  33 42 43  34 35 43  35 43 44  36 37 45  37 45 46  37 38 47  37 46 47  38 39 47  39 47 48  39 40 49  39 48 49  40 41 49  41 49 50  41 42 51  41 50 51  42 43 51  43 51 52  43 44 53  43 52 53  45 46 55  45 54 55  46 47 55  47 55 56  47 48 57  47 56 57  48 49 57  49 57 58  49 50 59  49 58 59  50 51 59  51 59 60  51 52 61  51 60 61  52 53 61  53 61 62  54 55 63  55 63 64  55 56 65  55 64 65  56 57 65  57 65 66  57 58 67  57 66 67  58 59 67  59 67 68  59 60 69  59 68 69  60 61 69  61 69 70  61 62 71  61 70 71  63 64 73  63 72 73  64 65 73  65 73 74  65 66 75  65 74 75  66 67 75  67 75 76  67 68 77  67 76 77  68 69 77  69 77 78  69 70 79  69 78 79  70 71 79  71 79 80  </DataArray>
<DataArray  type="UInt32"  Name="offsets"  format="ascii">3 6 9 12 15 18 21 24 27 30 33 36 39 42 45 48 51 54 57 60 63 66 69 72 75 78 81 84 87 90 93 96 99 102 105 108 111 114 117 120 123 126 129 132 135 138 141 144 147 150 153 156 159 162 165 168 171 174 177 180 183 186 189 192 195 198 201 204 207 210 213 216 219 222 225 228 231 234 237 240 243 246 249 252 255 258 261 264 267 270 273 276 279 282 285 288 291 294 297 300 303 306 309 312 315 318 321 324 327 330 333 336 339 342 345 348 351 354 357 360 363 366 369 372 375 378 381 384 </DataArray>
<DataArray  type="UInt8"  Name="types"  format="ascii">5 5 5 5 5 5 5 5 5 5 5 5 5 5 5 5 5 5 5 5 5 5 5 5 5 5 5 5 5 5 5 5 5 5 5 5 5 5 5 5 5 5 5 5 5 5 5 5 5 5 5 5 5 5 5 5 5 5 5 5 5 5 5 5 5 5 5 5 5 5 5 5 5 5 5 5 5 5 5 5 5 5 5 5 5 5 5 5 5 5 5 5 5 5 5 5 5 5 5 5 5 5 5 5 5 5 5 5 5 5 5 5 5 5 5 5 5 5 5 5 5 5 5 5 5 5 5 5 </DataArray>
</Cells>
<PointData  Vectors="f_16"> 
<DataArray  type="Float64"  Name="f_16"  NumberOfComponents="3" format="ascii">2.0680683821893477e-05 -2.0642852978870569e-08 0.0000000000000000e+00  -1.1961833946249187e-06 -1.3909221369854656e-09 0.0000000000000000e+00  1.1398337173082924e-06 -7.4198438069901397e-09 0.0000000000000000e+00  -8.1447195270212846e-06 1.0352446386403249e-08 0.0000000000000000e+00  -2.9159757379436651e-06 7.2630160217541118e-09 0.0000000000000000e+00  -5.0196490147986253e-06 4.8162774980050670e-08 0.0000000000000000e+00  -6.3973428638201904e-06 6.7911934118278839e-08 0.0000000000000000e+00  -6.7638043345986695e-06 2.8491221343805328e-08 0.0000000000000000e+00  -3.1057230282451608e-06 1.1539920957814871e-09 0.0000000000000000e+00  6.5624708284781641e-01 -1.5429827417768449e-08 0.0000000000000000e+00  6.5731857677297012e-01 -9.2521179097065253e-05 0.0000000000000000e+00  6.5916664414202253e-01 -5.3288402348170168e-04 0.0000000000000000e+00  6.6188627564428348e-01 -5.5992671803617498e-04 0.0000000000000000e+00  6.7312360147208961e-01 -3.7039130937699420e-03 0.0000000000000000e+00  7.2126227532560738e-01 -7.4012983121964152e-03 0.0000000000000000e+00  7.9405412555308286e-01 -7.0281191492826299e-03 0.0000000000000000e+00  8.4323770719656521e-01 -1.7688751991098042e-03 0.0000000000000000e+00  8.3819178203922118e-01 -2.1210244225605652e-04 0.0000000000000000e+00  1.1249842880638388e+00 3.2789981201677190e-09 0.0000000000000000e+00  1.1256552070170929e+00 -1.3359405761966148e-03 0.0000000000000000e+00  1.1237367663914477e+00 -9.2232519315702248e-04 0.0000000000000000e+00  1.1251623637884418e+00 6.5545422833496376e-04 0.0000000000000000e+00  1.1215979543127941e+00 -4.4973552208366898e-03 0.0000000000000000e+00  1.1181391689797189e+00 -1.6686395510053777e-02 0.0000000000000000e+00  1.1312349088012785e+00 -1.7420518666971471e-02 0.0000000000000000e+00  1.1726048310926420e+00 -9.4716051592417735e-03 0.0000000000000000e+00  1.1874210937440695e+00 3.8648331771117869e-03 0.0000000000000000e+00  1.4062397617688764e+00 5.1972692422436374e-09 0.0000000000000000e+00  1.4064363590128586e+00 -9.0229997211449455e-04 0.0000000000000000e+00  1.4098388278656147e+00 -3.7100396670250460e-05 0.0000000000000000e+00  1.4028815151610898e+00 7.0915357767676506e-04 0.0000000000000000e+00  1.3950077861076344e+00 -3.1744250143623670e-03 0.0000000000000000e+00  1.3649235452340427e+00 -1.1460053707303625e-02 0.0000000000000000e+00  1.3125300082417586e+00 -1.3709815658385199e-02 0.0000000000000000e+00  1.2545065332042404e+00 -1.2561172748229587e-02 0.0000000000000000e+00  1.2583593826876627e+00 3.9495859166662874e-03 0.0000000000000000e+00  1.4999820346490633e+00 -4.7474740471186098e-09 0.0000000000000000e+00  1.5035317700599762e+00 -1.5096423934520434e-04 0.0000000000000000e+00  1.5025067025843686e+00 -1.5799946225847713e-04 0.0000000000000000e+00  1.4968268037859151e+00 -4.5998260719081059e-05 0.0000000000000000e+00  1.4832437678926438e+00 3.0550185866792332e-05 0.0000000000000000e+00  1.4512218486219131e+00 1.0086826628202301e-04 0.0000000000000000e+00  1.3777729764541928e+00 1.0247606639293969e-04 0.0000000000000000e+00  1.2780139456982711e+00 1.9737649748995841e-04 0.0000000000000000e+00  1.2622454517942838e+00 1.0752917560302119e-04 0.0000000000000000e+00  1.4062364479386298e+00 -1.3341834436814614e-08 0.0000000000000000e+00  1.4063508959182676e+00 7.0379176609624151e-04 0.0000000000000000e+00  1.4089827729307767e+00 -3.1733997338258773e-04 0.0000000000000000e+00  1.4033131796331655e+00 -8.3729213310590510e-04 0.0000000000000000e+00  1.3946669222611840e+00 3.2942198860304063e-03 0.0000000000000000e+00  1.3628523659608960e+00 1.1577995685757111e-02 0.0000000000000000e+00  1.3135836256153881e+00 1.3776957706509012e-02 0.0000000000000000e+00  1.2538247007690559e+00 1.2705405619821102e-02 0.0000000000000000e+00  1.2573031313562839e+00 -3.8988861206806177e-03 0.0000000000000000e+00  1.1249861453436987e+00 -6.5114031456430965e-09 0.0000000000000000e+00  1.1253492804428369e+00 8.9933058880628807e-04 0.0000000000000000e+00  1.1248264319736558e+00 7.3447838849677457e-04 0.0000000000000000e+00  1.1234666166198035e+00 -7.5549101692648133e-04 0.0000000000000000e+00  1.1208139105119030e+00 4.6173554605542320e-03 0.0000000000000000e+00  1.1185531142877174e+00 1.6870529411821031e-02 0.0000000000000000e+00  1.1290896832924868e+00 1.7537041759339417e-02 0.0000000000000000e+00  1.1727674092592850e+00 9.7279344754715273e-03 0.0000000000000000e+00  1.1863268820618913e+00 -3.4924157983841522e-03 0.0000000000000000e+00  6.5624166247285221e-01 9.1471467963530529e-09 0.0000000000000000e+00  6.5602412886874584e-01 -1.3479660651768132e-05 0.0000000000000000e+00  6.5733383601219608e-01 4.7002536857655404e-04 0.0000000000000000e+00  6.6016358155044974e-01 5.2937478944564275e-04 0.0000000000000000e+00  6.7170946040026780e-01 3.7095692894223743e-03 0.0000000000000000e+00  7.1952286626477413e-01 7.4667124282215237e-03 0.0000000000000000e+00  7.9413814127968041e-01 7.1406997562549635e-03 0.0000000000000000e+00  8.4092257720356267e-01 1.8434056880336713e-03 0.0000000000000000e+00  8.3945457927417499e-01 5.9968856188841082e-04 0.0000000000000000e+00  -6.9128467675377719e-06 6.1924733672368612e-09 0.0000000000000000e+00  -7.2569444217147857e-06 -4.2263375306274484e-09 0.0000000000000000e+00  -4.5822450409157526e-06 1.1502799994699079e-08 0.0000000000000000e+00  -6.1024807113579786e-06 1.1323879112574358e-08 0.0000000000000000e+00  -2.1351413088772284e-06 3.8328063506969635e-08 0.0000000000000000e+00  -6.9506351588098192e-06 -1.6546145840983148e-09 0.0000000000000000e+00  -8.0973991371429914e-06 -5.3269136774311168e-08 0.0000000000000000e+00  8.8574349437478398e-07 -3.3425058044401621e-08 0.0000000000000000e+00  -1.0995723056720816e-05 -3.7765986093050167e-08 0.0000000000000000e+00  </DataArray> 
</PointData> 
</Piece>
</UnstructuredGrid>
</VTKFile>