<?xml version="1.0"?>
<VTKFile type="UnstructuredGrid"  version="0.1"  >
<UnstructuredGrid>
<Piece  NumberOfPoints="81" NumberOfCells="128">
<Points>
<DataArray  type="Float64"  NumberOfComponents="3"  format="ascii">0 0 0  0.275 0 0  0.55 0 0  0.8250000000000001 0 0  1.1 0 0  1.375 0 0  1.65 0 0  1.925 0 0  2.2 0 0  0 0.05125 0  0.275 0.05125 0  0.55 0.05125 0  0.8250000000000001 0.05125 0  1.1 0.05125 0  1.375 0.05125 0  1.65 0.05125 0  1.925 0.05125 0  2.2 0.05125 0  0 0.1025 0  0.275 0.1025 0  0.55 0.1025 0  0.8250000000000001 0.1025 0  1.1 0.1025 0  1.375 0.1025 0  1.65 0.1025 0  1.925 0.1025 0  2.2 0.1025 0  0 0.15375 0  0.275 0.15375 0  0.55 0.15375 0  0.8250000000000001 0.15375 0  1.1 0.15375 0  1.375 0.15375 0  1.65 0.15375 0  1.925 0.15375 0  2.2 0.15375 0  0 0.205 0  0.275 0.205 0  0.55 0.205 0  0.8250000000000001 0.205 0  1.1 0.205 0  1.375 0.205 0  1.65 0.205 0  1.925 0.205 0  2.2 0.205 0  0 0.25625 0  0.275 0.25625 0  0.55 0.25625 0  0.8250000000000001 0.25625 0  1.1 0.25625 0  1.375 0.25625 0  1.65 0.25625 0  1.925 0.25625 0  2.2 0.25625 0  0 0.3075 0  0.275 0.3075 0  0.55 0.3075 0  0.8250000000000001 0.3075 0  1.1 0.3075 0  1.375 0.3075 0  1.65 0.3075 0  1.925 0.3075 0  2.2 0.3075 0  0 0.35875 0  0.275 0.35875 0  0.55 0.35875 0  0.8250000000000001 0.35875 0  1.1 0.35875 0  1.375 0.35875 0  1.65 0.35875 0  1.925 0.35875 0  2.2 0.35875 0  0 0.41 0  0.275 0.41 0  0.55 0.41 0  0.8250000000000001 0.41 0  1.1 0.41 0  1.375 0.41 0  1.65 0.41 0  1.925 0.41 0  2.2 0.41 0  </DataArray>
</Points>
<Cells>
<DataArray  type="UInt32"  Name="connectivity"  format="ascii">0 1 9  1 9 10  1 2 11  1 10 11  2 3 11  3 11 12  3 4 13  3 12 13  4 5 13  5 13 14  5 6 15  5 14 15  6 7 15  7 15 16  7 8 17  7 16 17  9 10 19  9 18 19  10 11 19  11 19 20  11 12 21  11 20 21  12 13 21  13 21 22  13 14 23  13 22 23  14 15 23  15 23 24  15 16 25  15 24 25  16 17 25  17 25 26  18 19 27  19 27 28  19 20 29  19 28 29  20 21 29  21 29 30  21 22 31  21 30 31  22 23 31  23 31 32  23 24 33  23 32 33  24 25 33  25 33 34  25 26 35  25 34 35  27 28 37  27 36 37  28 29 37  29 37 38  29 30 39  29 38 39  30 31 39  31 39 40  31 32 41  31 40 41  32 33 41  33 41 42  33 34 43  33 42 43  34 35 43  35 43 44  36 37 45  37 45 46  37 38 47  37 46 47  38 39 47  39 47 48  39 40 49  39 48 49  40 41 49  41 49 50  41 42 51  41 50 51  42 43 51  43 51 52  43 44 53  43 52 53  45 46 55  45 54 55  46 47 55  47 55 56  47 48 57  47 56 57  48 49 57  49 57 58  49 50 59  49 58 59  50 51 59  51 59 60  51 52 61  51 60 61  52 53 61  53 61 62  54 55 63  55 63 64  55 56 65  55 64 65  56 57 65  57 65 66  57 58 67  57 66 67  58 59 67  59 67 68  59 60 69  59 68 69  60 61 69  61 69 70  61 62 71  61 70 71  63 64 73  63 72 73  64 65 73  65 73 74  65 66 75  65 74 75  66 67 75  67 75 76  67 68 77  67 76 77  68 69 77  69 77 78  69 70 79  69 78 79  70 71 79  71 79 80  </DataArray>
<DataArray  type="UInt32"  Name="offsets"  format="ascii">3 6 9 12 15 18 21 24 27 30 33 36 39 42 45 48 51 54 57 60 63 66 69 72 75 78 81 84 87 90 93 96 99 102 105 108 111 114 117 120 123 126 129 132 135 138 141 144 147 150 153 156 159 162 165 168 171 174 177 180 183 186 189 192 195 198 201 204 207 210 213 216 219 222 225 228 231 234 237 240 243 246 249 252 255 258 261 264 267 270 273 276 279 282 285 288 291 294 297 300 303 306 309 312 315 318 321 324 327 330 333 336 339 342 345 348 351 354 357 360 363 366 369 372 375 378 381 384 </DataArray>
<DataArray  type="UInt8"  Name="types"  format="ascii">5 5 5 5 5 5 5 5 5 5 5 5 5 5 5 5 5 5 5 5 5 5 5 5 5 5 5 5 5 5 5 5 5 5 5 5 5 5 5 5 5 5 5 5 5 5 5 5 5 5 5 5 5 5 5 5 5 5 5 5 5 5 5 5 5 5 5 5 5 5 5 5 5 5 5 5 5 5 5 5 5 5 5 5 5 5 5 5 5 5 5 5 5 5 5 5 5 5 5 5 5 5 5 5 5 5 5 5 5 5 5 5 5 5 5 5 5 5 5 5 5 5 5 5 5 5 5 5 </DataArray>
</Cells>
<PointData  Vectors="f_16"> 
<DataArray  type="Float64"  Name="f_16"  NumberOfComponents="3" format="ascii">2.0489802298096285e-05 -4.4224299557341124e-09 0.0000000000000000e+00  -1.2013200292006979e-06 -1.7737582661702787e-11 0.0000000000000000e+00  1.0436654211038186e-06 -9.8121828719328466e-10 0.0000000000000000e+00  -8.2926902897949422e-06 9.7699761457173164e-10 0.0000000000000000e+00  -2.9403923977715459e-06 1.1554723323520370e-11 0.0000000000000000e+00  -4.7736637216486245e-06 -8.1374897815654820e-10 0.0000000000000000e+00  -5.1847612418029316e-06 -4.1248239727524767e-10 0.0000000000000000e+00  -5.9223053193682437e-06 -4.7526892405731346e-10 0.0000000000000000e+00  -1.2393562528456430e-06 1.8711757675538552e-10 0.0000000000000000e+00  6.5624702211031305e-01 -2.8610683318927147e-10 0.0000000000000000e+00  6.5712390451807712e-01 -1.2751841194574804e-04 0.0000000000000000e+00  6.5837153283995209e-01 1.3397705102545529e-04 0.0000000000000000e+00  6.5820392594373933e-01 -3.2437637287950731e-05 0.0000000000000000e+00  6.5877254968005072e-01 -2.0146142838660055e-05 0.0000000000000000e+00  6.5863201902003499e-01 3.7367170439888294e-05 0.0000000000000000e+00  6.5835986587079798e-01 1.2592409875774809e-06 0.0000000000000000e+00  6.5750573784093480e-01 2.7500539592163981e-05 0.0000000000000000e+00  6.5751165228051156e-01 -4.3114768741285731e-05 0.0000000000000000e+00  1.1249841010974355e+00 9.9581804601039353e-10 0.0000000000000000e+00  1.1255466629171689e+00 -6.1941336447017211e-04 0.0000000000000000e+00  1.1238781760559569e+00 -1.5434650880662837e-04 0.0000000000000000e+00  1.1264596643804823e+00 -1.3233516434409606e-04 0.0000000000000000e+00  1.1256145503541066e+00 9.7322402711480104e-06 0.0000000000000000e+00  1.1252571848399302e+00 1.8278422197085716e-04 0.0000000000000000e+00  1.1252001690954776e+00 1.5020035033378118e-04 0.0000000000000000e+00  1.1246453250781940e+00 2.1128972599144928e-04 0.0000000000000000e+00  1.1241663471894210e+00 1.4359076953696239e-04 0.0000000000000000e+00  1.4062394803585738e+00 -9.2837565318953680e-11 0.0000000000000000e+00  1.4055812745980707e+00 -1.6296779856070270e-04 0.0000000000000000e+00  1.4068399917808909e+00 -1.4395340870847244e-04 0.0000000000000000e+00  1.4047272869241159e+00 -1.8492923212773692e-04 0.0000000000000000e+00  1.4072114462392407e+00 -1.8017549542174120e-04 0.0000000000000000e+00  1.4061143185441431e+00 9.9797281873229856e-05 0.0000000000000000e+00  1.4057860280614123e+00 1.5937361548268132e-04 0.0000000000000000e+00  1.4056739628917938e+00 2.1032624135344165e-04 0.0000000000000000e+00  1.4055848281171344e+00 1.3035433517777183e-04 0.0000000000000000e+00  1.4999818422411302e+00 8.8511243926548809e-10 0.0000000000000000e+00  1.5000649694697594e+00 -1.5751129429351834e-04 0.0000000000000000e+00  1.4988899677401553e+00 -1.8411503566418403e-04 0.0000000000000000e+00  1.4995827928633518e+00 -1.2688509244227823e-04 0.0000000000000000e+00  1.4973510935116967e+00 -6.5745550266851658e-05 0.0000000000000000e+00  1.4993225734994837e+00 8.2758534348929087e-05 0.0000000000000000e+00  1.4985430020647896e+00 2.8127797403180169e-04 0.0000000000000000e+00  1.4981436965527128e+00 4.5782426397074458e-04 0.0000000000000000e+00  1.4981995758341460e+00 3.4144777871781656e-04 0.0000000000000000e+00  1.4062361156181542e+00 6.4962742190299181e-10 0.0000000000000000e+00  1.4054888067715368e+00 -5.5993303701426431e-05 0.0000000000000000e+00  1.4059359490014940e+00 -2.4018917605849038e-04 0.0000000000000000e+00  1.4049544833057697e+00 -9.0624219572707853e-05 0.0000000000000000e+00  1.4064746496389586e+00 6.1609624288279301e-05 0.0000000000000000e+00  1.4036779952671050e+00 5.2655614912038555e-05 0.0000000000000000e+00  1.4066619494112731e+00 2.0379698469900708e-04 0.0000000000000000e+00  1.4051912431790050e+00 3.5174933208436646e-04 0.0000000000000000e+00  1.4050584990297166e+00 3.5514247443899902e-04 0.0000000000000000e+00  1.1249860144889645e+00 -6.3506909877532003e-11 0.0000000000000000e+00  1.1252780565314362e+00 1.8984578547938340e-04 0.0000000000000000e+00  1.1248845197020785e+00 -7.5915575319167924e-05 0.0000000000000000e+00  1.1244810058571240e+00 -7.4119948107369740e-05 0.0000000000000000e+00  1.1240359028306262e+00 -2.4131487545103956e-05 0.0000000000000000e+00  1.1247759414939893e+00 -1.3402823188324460e-05 0.0000000000000000e+00  1.1225630658228574e+00 2.0818050850262643e-04 0.0000000000000000e+00  1.1250314909046333e+00 4.3365257730679344e-04 0.0000000000000000e+00  1.1240283614196982e+00 5.1652238681693455e-04 0.0000000000000000e+00  6.5624143950935709e-01 -3.2561325301499468e-10 0.0000000000000000e+00  6.5587884211404357e-01 2.1725098754347771e-05 0.0000000000000000e+00  6.5653701662373376e-01 -2.0510402760565044e-04 0.0000000000000000e+00  6.5618705832344182e-01 -2.1165271365585132e-05 0.0000000000000000e+00  6.5664212482471762e-01 -2.0652720186460840e-05 0.0000000000000000e+00  6.5570041923394773e-01 3.6502585617918569e-05 0.0000000000000000e+00  6.5786965505858019e-01 2.1977666804937648e-04 0.0000000000000000e+00  6.5571356924973778e-01 1.7415298721832207e-04 0.0000000000000000e+00  6.5979578850437137e-01 5.7150892719797137e-04 0.0000000000000000e+00  -7.0283373508101568e-06 -8.2395395736430085e-10 0.0000000000000000e+00  -7.2265829923392305e-06 -4.9567145491699922e-10 0.0000000000000000e+00  -4.6029909621340453e-06 -2.0638935585782770e-10 0.0000000000000000e+00  -6.2741251739805613e-06 8.1931366572105523e-10 0.0000000000000000e+00  -2.2754467154528221e-06 1.0894689282927873e-09 0.0000000000000000e+00  -6.9281014701214131e-06 -1.3534667016753448e-09 0.0000000000000000e+00  -7.0866033702797320e-06 -4.0142138155812046e-10 0.0000000000000000e+00  4.7831180688838741e-07 3.4779224127774413e-10 0.0000000000000000e+00  -1.0283597142834079e-05 -4.4990617926847581e-09 0.0000000000000000e+00  </DataArray> 
</PointData> 
</Piece>
</UnstructuredGrid>
</VTKFile>