<?xml version="1.0"?>
<VTKFile type="UnstructuredGrid"  version="0.1"  >
<UnstructuredGrid>
<Piece  NumberOfPoints="81" NumberOfCells="128">
<Points>
<DataArray  type="Float64"  NumberOfComponents="3"  format="ascii">0 0 0  0.275 0 0  0.55 0 0  0.8250000000000001 0 0  1.1 0 0  1.375 0 0  1.65 0 0  1.925 0 0  2.2 0 0  0 0.05125 0  0.275 0.05125 0  0.55 0.05125 0  0.8250000000000001 0.05125 0  1.1 0.05125 0  1.375 0.05125 0  1.65 0.05125 0  1.925 0.05125 0  2.2 0.05125 0  0 0.1025 0  0.275 0.1025 0  0.55 0.1025 0  0.8250000000000001 0.1025 0  1.1 0.1025 0  1.375 0.1025 0  1.65 0.1025 0  1.925 0.1025 0  2.2 0.1025 0  0 0.15375 0  0.275 0.15375 0  0.55 0.15375 0  0.8250000000000001 0.15375 0  1.1 0.15375 0  1.375 0.15375 0  1.65 0.15375 0  1.925 0.15375 0  2.2 0.15375 0  0 0.205 0  0.275 0.205 0  0.55 0.205 0  0.8250000000000001 0.205 0  1.1 0.205 0  1.375 0.205 0  1.65 0.205 0  1.925 0.205 0  2.2 0.205 0  0 0.25625 0  0.275 0.25625 0  0.55 0.25625 0  0.8250000000000001 0.25625 0  1.1 0.25625 0  1.375 0.25625 0  1.65 0.25625 0  1.925 0.25625 0  2.2 0.25625 0  0 0.3075 0  0.275 0.3075 0  0.55 0.3075 0  0.8250000000000001 0.3075 0  1.1 0.3075 0  1.375 0.3075 0  1.65 0.3075 0  1.925 0.3075 0  2.2 0.3075 0  0 0.35875 0  0.275 0.35875 0  0.55 0.35875 0  0.8250000000000001 0.35875 0  1.1 0.35875 0  1.375 0.35875 0  1.65 0.35875 0  1.925 0.35875 0  2.2 0.35875 0  0 0.41 0  0.275 0.41 0  0.55 0.41 0  0.8250000000000001 0.41 0  1.1 0.41 0  1.375 0.41 0  1.65 0.41 0  1.925 0.41 0  2.2 0.41 0  </DataArray>
</Points>
<Cells>
<DataArray  type="UInt32"  Name="connectivity"  format="ascii">0 1 9  1 9 10  1 2 11  1 10 11  2 3 11  3 11 12  3 4 13  3 12 13  4 5 13  5 13 14  5 6 15  5 14 15  6 7 15  7 15 16  7 8 17  7 16 17  9 10 19  9 18 19  10 11 19  11 19 20  11 12 21  11 20 21  12 13 21  13 21 22  13 14 23  13 22 23  14 15 23  15 23 24  15 16 25  15 24 25  16 17 25  17 25 26  18 19 27  19 27 28  19 20 29  19 28 29  20 21 29  21 29 30  21 22 31  21 30 31  22 23 31  23 31 32  23 24 33  23 32 33  24 25 33  25 33 34  25 26 35  25 34 35  27 28 37  27 36 37  28 29 37  29 37 38  29 30 39  29 38 39  30 31 39  31 39 40  31 32 41  31 40 41  32 33 41  33 41 42  33 34 43  33 42 43  34 35 43  35 43 44  36 37 45  37 45 46  37 38 47  37 46 47  38 39 47  39 47 48  39 40 49  39 48 49  40 41 49  41 49 50  41 42 51  41 50 51  42 43 51  43 51 52  43 44 53  43 52 53  45 46 55  45 54 55  46 47 55  47 55 56  47 48 57  47 56 57  48 49 57  49 57 58  49 50 59  49 58 59  50 51 59  51 59 60  51 52 61  51 60 61  52 53 61  53 61 62  54 55 63  55 63 64  55 56 65  55 64 65  56 57 65  57 65 66  57 58 67  57 66 67  58 59 67  59 67 68  59 60 69  59 68 69  60 61 69  61 69 70  61 62 71  61 70 71  63 64 73  63 72 73  64 65 73  65 73 74  65 66 75  65 74 75  66 67 75  67 75 76  67 68 77  67 76 77  68 69 77  69 77 78  69 70 79  69 78 79  70 71 79  71 79 80  </DataArray>
<DataArray  type="UInt32"  Name="offsets"  format="ascii">3 6 9 12 15 18 21 24 27 30 33 36 39 42 45 48 51 54 57 60 63 66 69 72 75 78 81 84 87 90 93 96 99 102 105 108 111 114 117 120 123 126 129 132 135 138 141 144 147 150 153 156 159 162 165 168 171 174 177 180 183 186 189 192 195 198 201 204 207 210 213 216 219 222 225 228 231 234 237 240 243 246 249 252 255 258 261 264 267 270 273 276 279 282 285 288 291 294 297 300 303 306 309 312 315 318 321 324 327 330 333 336 339 342 345 348 351 354 357 360 363 366 369 372 375 378 381 384 </DataArray>
<DataArray  type="UInt8"  Name="types"  format="ascii">5 5 5 5 5 5 5 5 5 5 5 5 5 5 5 5 5 5 5 5 5 5 5 5 5 5 5 5 5 5 5 5 5 5 5 5 5 5 5 5 5 5 5 5 5 5 5 5 5 5 5 5 5 5 5 5 5 5 5 5 5 5 5 5 5 5 5 5 5 5 5 5 5 5 5 5 5 5 5 5 5 5 5 5 5 5 5 5 5 5 5 5 5 5 5 5 5 5 5 5 5 5 5 5 5 5 5 5 5 5 5 5 5 5 5 5 5 5 5 5 5 5 5 5 5 5 5 5 </DataArray>
</Cells>
<PointData  Scalars="f_22"> 
<DataArray  type="Float64"  Name="f_22"  format="ascii">1.5997111511584972e-01  1.4064709333222083e-01  1.2041118484931770e-01  1.0033338038792576e-01  8.0309151344071669e-02  6.0211200013971990e-02  4.0190924423111458e-02  2.0050428910371728e-02  0.0000000000000000e+00  1.6018790608389977e-01  1.4059848480314258e-01  1.2045888715755872e-01  1.0031709641649975e-01  8.0304953493945508e-02  6.0200936962795333e-02  4.0190735208938309e-02  2.0045650049309565e-02  0.0000000000000000e+00  1.6047419869864682e-01  1.4047434280184640e-01  1.2045884265212499e-01  1.0034331033097689e-01  8.0250470548033373e-02  6.0246273643911850e-02  4.0152394183316294e-02  2.0080796594020039e-02  0.0000000000000000e+00  1.6056810099385668e-01  1.4040942991703942e-01  1.2047284150372628e-01  1.0030492943776641e-01  8.0185112914131371e-02  6.0235336943448965e-02  4.0142339635652585e-02  2.0073844666985918e-02  0.0000000000000000e+00  1.6073849706953122e-01  1.4043945254421794e-01  1.2045038212311077e-01  1.0037759466008474e-01  8.0016824938890604e-02  6.0243245058898005e-02  4.0044612987484511e-02  2.0144792021710978e-02  0.0000000000000000e+00  1.6065481389992636e-01  1.4050842149126408e-01  1.2043964849144789e-01  1.0032990638816612e-01  8.0090008496633683e-02  6.0133145068399341e-02  4.0007356938221605e-02  2.0139603272290477e-02  0.0000000000000000e+00  1.6060725648059188e-01  1.4058647674988481e-01  1.2043608809363683e-01  1.0030234683971492e-01  8.0075735041210086e-02  6.0158190824565125e-02  3.9863972310169235e-02  2.0144879441292247e-02  0.0000000000000000e+00  1.6049409170188400e-01  1.4067821400810573e-01  1.2043845219222553e-01  1.0025815314698538e-01  8.0137969345406707e-02  6.0065531425465397e-02  3.9926107293001320e-02  2.0019140609247327e-02  0.0000000000000000e+00  1.6043846243488941e-01  1.4067445533755851e-01  1.2043460550996357e-01  1.0025351589742479e-01  8.0163893871151443e-02  6.0066572799052788e-02  3.9944013081019990e-02  2.0049601527648651e-02  0.0000000000000000e+00  </DataArray> 
</PointData> 
</Piece>
</UnstructuredGrid>
</VTKFile>