<?xml version="1.0"?>
<VTKFile type="UnstructuredGrid"  version="0.1"  >
<UnstructuredGrid>
<Piece  NumberOfPoints="81" NumberOfCells="128">
<Points>
<DataArray  type="Float64"  NumberOfComponents="3"  format="ascii">0 0 0  0.275 0 0  0.55 0 0  0.8250000000000001 0 0  1.1 0 0  1.375 0 0  1.65 0 0  1.925 0 0  2.2 0 0  0 0.05125 0  0.275 0.05125 0  0.55 0.05125 0  0.8250000000000001 0.05125 0  1.1 0.05125 0  1.375 0.05125 0  1.65 0.05125 0  1.925 0.05125 0  2.2 0.05125 0  0 0.1025 0  0.275 0.1025 0  0.55 0.1025 0  0.8250000000000001 0.1025 0  1.1 0.1025 0  1.375 0.1025 0  1.65 0.1025 0  1.925 0.1025 0  2.2 0.1025 0  0 0.15375 0  0.275 0.15375 0  0.55 0.15375 0  0.8250000000000001 0.15375 0  1.1 0.15375 0  1.375 0.15375 0  1.65 0.15375 0  1.925 0.15375 0  2.2 0.15375 0  0 0.205 0  0.275 0.205 0  0.55 0.205 0  0.8250000000000001 0.205 0  1.1 0.205 0  1.375 0.205 0  1.65 0.205 0  1.925 0.205 0  2.2 0.205 0  0 0.25625 0  0.275 0.25625 0  0.55 0.25625 0  0.8250000000000001 0.25625 0  1.1 0.25625 0  1.375 0.25625 0  1.65 0.25625 0  1.925 0.25625 0  2.2 0.25625 0  0 0.3075 0  0.275 0.3075 0  0.55 0.3075 0  0.8250000000000001 0.3075 0  1.1 0.3075 0  1.375 0.3075 0  1.65 0.3075 0  1.925 0.3075 0  2.2 0.3075 0  0 0.35875 0  0.275 0.35875 0  0.55 0.35875 0  0.8250000000000001 0.35875 0  1.1 0.35875 0  1.375 0.35875 0  1.65 0.35875 0  1.925 0.35875 0  2.2 0.35875 0  0 0.41 0  0.275 0.41 0  0.55 0.41 0  0.8250000000000001 0.41 0  1.1 0.41 0  1.375 0.41 0  1.65 0.41 0  1.925 0.41 0  2.2 0.41 0  </DataArray>
</Points>
<Cells>
<DataArray  type="UInt32"  Name="connectivity"  format="ascii">0 1 9  1 9 10  1 2 11  1 10 11  2 3 11  3 11 12  3 4 13  3 12 13  4 5 13  5 13 14  5 6 15  5 14 15  6 7 15  7 15 16  7 8 17  7 16 17  9 10 19  9 18 19  10 11 19  11 19 20  11 12 21  11 20 21  12 13 21  13 21 22  13 14 23  13 22 23  14 15 23  15 23 24  15 16 25  15 24 25  16 17 25  17 25 26  18 19 27  19 27 28  19 20 29  19 28 29  20 21 29  21 29 30  21 22 31  21 30 31  22 23 31  23 31 32  23 24 33  23 32 33  24 25 33  25 33 34  25 26 35  25 34 35  27 28 37  27 36 37  28 29 37  29 37 38  29 30 39  29 38 39  30 31 39  31 39 40  31 32 41  31 40 41  32 33 41  33 41 42  33 34 43  33 42 43  34 35 43  35 43 44  36 37 45  37 45 46  37 38 47  37 46 47  38 39 47  39 47 48  39 40 49  39 48 49  40 41 49  41 49 50  41 42 51  41 50 51  42 43 51  43 51 52  43 44 53  43 52 53  45 46 55  45 54 55  46 47 55  47 55 56  47 48 57  47 56 57  48 49 57  49 57 58  49 50 59  49 58 59  50 51 59  51 59 60  51 52 61  51 60 61  52 53 61  53 61 62  54 55 63  55 63 64  55 56 65  55 64 65  56 57 65  57 65 66  57 58 67  57 66 67  58 59 67  59 67 68  59 60 69  59 68 69  60 61 69  61 69 70  61 62 71  61 70 71  63 64 73  63 72 73  64 65 73  65 73 74  65 66 75  65 74 75  66 67 75  67 75 76  67 68 77  67 76 77  68 69 77  69 77 78  69 70 79  69 78 79  70 71 79  71 79 80  </DataArray>
<DataArray  type="UInt32"  Name="offsets"  format="ascii">3 6 9 12 15 18 21 24 27 30 33 36 39 42 45 48 51 54 57 60 63 66 69 72 75 78 81 84 87 90 93 96 99 102 105 108 111 114 117 120 123 126 129 132 135 138 141 144 147 150 153 156 159 162 165 168 171 174 177 180 183 186 189 192 195 198 201 204 207 210 213 216 219 222 225 228 231 234 237 240 243 246 249 252 255 258 261 264 267 270 273 276 279 282 285 288 291 294 297 300 303 306 309 312 315 318 321 324 327 330 333 336 339 342 345 348 351 354 357 360 363 366 369 372 375 378 381 384 </DataArray>
<DataArray  type="UInt8"  Name="types"  format="ascii">5 5 5 5 5 5 5 5 5 5 5 5 5 5 5 5 5 5 5 5 5 5 5 5 5 5 5 5 5 5 5 5 5 5 5 5 5 5 5 5 5 5 5 5 5 5 5 5 5 5 5 5 5 5 5 5 5 5 5 5 5 5 5 5 5 5 5 5 5 5 5 5 5 5 5 5 5 5 5 5 5 5 5 5 5 5 5 5 5 5 5 5 5 5 5 5 5 5 5 5 5 5 5 5 5 5 5 5 5 5 5 5 5 5 5 5 5 5 5 5 5 5 5 5 5 5 5 5 </DataArray>
</Cells>
<PointData  Vectors="f_16"> 
<DataArray  type="Float64"  Name="f_16"  NumberOfComponents="3" format="ascii">2.3992634688550129e-05 4.3744850147274231e-08 0.0000000000000000e+00  -3.5156980839980533e-07 1.7956033034804176e-08 0.0000000000000000e+00  2.5149374465035526e-08 2.4867161942729245e-07 0.0000000000000000e+00  -8.5291328243554377e-06 4.1150829576443323e-07 0.0000000000000000e+00  -5.9733776468544545e-06 4.4508752005465065e-07 0.0000000000000000e+00  -5.7438935454879621e-06 -6.2203528806885770e-08 0.0000000000000000e+00  -9.4189574464705632e-06 1.4379255621267451e-07 0.0000000000000000e+00  -7.1644353944235087e-06 -1.9762754609472859e-07 0.0000000000000000e+00  -5.2923362020570637e-06 -1.5778681434618991e-08 0.0000000000000000e+00  6.5624812217277473e-01 1.3698887796111747e-07 0.0000000000000000e+00  7.1021098051132525e-01 -2.9484717521438601e-02 0.0000000000000000e+00  9.2987682635771296e-01 -1.4290035785867143e-02 0.0000000000000000e+00  1.0538576711638346e+00 -1.0082997392686864e-02 0.0000000000000000e+00  1.0713799302894873e+00 1.5244707294784495e-02 0.0000000000000000e+00  1.0216763822638988e+00 -1.1357065607735183e-02 0.0000000000000000e+00  1.0649908438421094e+00 1.1941513332129049e-02 0.0000000000000000e+00  1.0302438072917792e+00 -7.2473732716667252e-03 0.0000000000000000e+00  1.0566700024913658e+00 1.3828590413818995e-02 0.0000000000000000e+00  1.1249848083150085e+00 3.4607001306059692e-07 0.0000000000000000e+00  1.1149822865220533e+00 -3.6351821166185599e-02 0.0000000000000000e+00  1.0453084493874554e+00 -7.8607367143117446e-02 0.0000000000000000e+00  1.1042675198302703e+00 2.2823687954655236e-03 0.0000000000000000e+00  1.1543763285726207e+00 8.4690897788007990e-03 0.0000000000000000e+00  1.0785256603459454e+00 -1.0754603829960598e-02 0.0000000000000000e+00  1.1402637134461473e+00 5.0672888764362765e-03 0.0000000000000000e+00  1.0982170933982469e+00 -9.8461718199593980e-03 0.0000000000000000e+00  1.1397290831446161e+00 7.5888220012145201e-03 0.0000000000000000e+00  1.4062400993343920e+00 6.1886445969174041e-07 0.0000000000000000e+00  1.3789937354294284e+00 -9.4316851273727287e-04 0.0000000000000000e+00  1.1341370708656147e+00 -5.9060189049238224e-02 0.0000000000000000e+00  1.1083239754843837e+00 5.8638635263294414e-03 0.0000000000000000e+00  1.1655540350592368e+00 2.1144269285954024e-03 0.0000000000000000e+00  1.0906075547036802e+00 -2.0772630904726738e-03 0.0000000000000000e+00  1.1459143219179202e+00 3.0894171477101329e-03 0.0000000000000000e+00  1.1079224841071731e+00 -5.0154274688456104e-04 0.0000000000000000e+00  1.1453409022850383e+00 4.4290017595091475e-03 0.0000000000000000e+00  1.4999825060374521e+00 1.5139185243513869e-08 0.0000000000000000e+00  1.4933681717948193e+00 -1.3763196344632379e-04 0.0000000000000000e+00  1.1929811631443570e+00 -5.8264123431940731e-05 0.0000000000000000e+00  1.1017922969702603e+00 2.6625414114952143e-06 0.0000000000000000e+00  1.1646139149653636e+00 -1.2307589697674512e-05 0.0000000000000000e+00  1.0864234628445895e+00 1.1336761674691870e-04 0.0000000000000000e+00  1.1492541021319711e+00 1.4850561403983415e-04 0.0000000000000000e+00  1.1061766929958865e+00 1.5608529120627670e-05 0.0000000000000000e+00  1.1442624740478433e+00 -1.0310740712131068e-04 0.0000000000000000e+00  1.4062375162389300e+00 -5.4634456919136016e-07 0.0000000000000000e+00  1.3789043036953146e+00 8.8587513747133504e-04 0.0000000000000000e+00  1.1325333405542619e+00 5.9008291654913114e-02 0.0000000000000000e+00  1.1091322153513972e+00 -5.9814095637376382e-03 0.0000000000000000e+00  1.1654450465683466e+00 -1.9390364194244469e-03 0.0000000000000000e+00  1.0888985739733164e+00 2.1824328439141710e-03 0.0000000000000000e+00  1.1481883178820518e+00 -2.9483212935823904e-03 0.0000000000000000e+00  1.1083200469254471e+00 5.6611794868723900e-04 0.0000000000000000e+00  1.1444956176901286e+00 -4.7376065098875550e-03 0.0000000000000000e+00  1.1249865453090018e+00 -3.3756641171391407e-07 0.0000000000000000e+00  1.1146754674723365e+00 3.6095478380585931e-02 0.0000000000000000e+00  1.0468773211998925e+00 7.8642791868372711e-02 0.0000000000000000e+00  1.1030305862427177e+00 -2.3660411050280099e-03 0.0000000000000000e+00  1.1538427737313695e+00 -8.3692663949506470e-03 0.0000000000000000e+00  1.0798859670471541e+00 1.0766174568113613e-02 0.0000000000000000e+00  1.1389867800331284e+00 -5.0411598743715378e-03 0.0000000000000000e+00  1.0997392877444221e+00 9.9827826402594799e-03 0.0000000000000000e+00  1.1391820000358370e+00 -7.4745921091122136e-03 0.0000000000000000e+00  6.5624242513470943e-01 -2.2509515937049077e-07 0.0000000000000000e+00  7.0965751931920640e-01 2.9473877623265369e-02 0.0000000000000000e+00  9.2863100540800347e-01 1.4189146441645850e-02 0.0000000000000000e+00  1.0530777258996380e+00 1.0124390395833162e-02 0.0000000000000000e+00  1.0712658176148433e+00 -1.5271223817100603e-02 0.0000000000000000e+00  1.0209681494451264e+00 1.1362288613583208e-02 0.0000000000000000e+00  1.0654086255804474e+00 -1.1842427441642975e-02 0.0000000000000000e+00  1.0281025442974705e+00 7.2436847079331021e-03 0.0000000000000000e+00  1.0572950351143673e+00 -1.3515748118961937e-02 0.0000000000000000e+00  -6.5320438641305237e-06 -3.7143563064578970e-07 0.0000000000000000e+00  -6.3209872781647758e-06 -5.6847974572355309e-08 0.0000000000000000e+00  -5.4586205761716189e-06 -6.5867573320757146e-07 0.0000000000000000e+00  -7.1059480735522767e-06 -5.5833739772489518e-07 0.0000000000000000e+00  -5.5164172385965334e-06 -5.8013558660245725e-07 0.0000000000000000e+00  -8.4795011906370045e-06 5.4682016043320863e-08 0.0000000000000000e+00  -1.1356391804309794e-05 -1.2660061293803748e-07 0.0000000000000000e+00  1.3567942071497657e-06 1.3771655577833676e-07 0.0000000000000000e+00  -1.0626797267316778e-05 4.6948878747356863e-08 0.0000000000000000e+00  </DataArray> 
</PointData> 
</Piece>
</UnstructuredGrid>
</VTKFile>