<?xml version="1.0"?>
<VTKFile type="UnstructuredGrid"  version="0.1"  >
<UnstructuredGrid>
<Piece  NumberOfPoints="81" NumberOfCells="128">
<Points>
<DataArray  type="Float64"  NumberOfComponents="3"  format="ascii">0 0 0  0.275 0 0  0.55 0 0  0.8250000000000001 0 0  1.1 0 0  1.375 0 0  1.65 0 0  1.925 0 0  2.2 0 0  0 0.05125 0  0.275 0.05125 0  0.55 0.05125 0  0.8250000000000001 0.05125 0  1.1 0.05125 0  1.375 0.05125 0  1.65 0.05125 0  1.925 0.05125 0  2.2 0.05125 0  0 0.1025 0  0.275 0.1025 0  0.55 0.1025 0  0.8250000000000001 0.1025 0  1.1 0.1025 0  1.375 0.1025 0  1.65 0.1025 0  1.925 0.1025 0  2.2 0.1025 0  0 0.15375 0  0.275 0.15375 0  0.55 0.15375 0  0.8250000000000001 0.15375 0  1.1 0.15375 0  1.375 0.15375 0  1.65 0.15375 0  1.925 0.15375 0  2.2 0.15375 0  0 0.205 0  0.275 0.205 0  0.55 0.205 0  0.8250000000000001 0.205 0  1.1 0.205 0  1.375 0.205 0  1.65 0.205 0  1.925 0.205 0  2.2 0.205 0  0 0.25625 0  0.275 0.25625 0  0.55 0.25625 0  0.8250000000000001 0.25625 0  1.1 0.25625 0  1.375 0.25625 0  1.65 0.25625 0  1.925 0.25625 0  2.2 0.25625 0  0 0.3075 0  0.275 0.3075 0  0.55 0.3075 0  0.8250000000000001 0.3075 0  1.1 0.3075 0  1.375 0.3075 0  1.65 0.3075 0  1.925 0.3075 0  2.2 0.3075 0  0 0.35875 0  0.275 0.35875 0  0.55 0.35875 0  0.8250000000000001 0.35875 0  1.1 0.35875 0  1.375 0.35875 0  1.65 0.35875 0  1.925 0.35875 0  2.2 0.35875 0  0 0.41 0  0.275 0.41 0  0.55 0.41 0  0.8250000000000001 0.41 0  1.1 0.41 0  1.375 0.41 0  1.65 0.41 0  1.925 0.41 0  2.2 0.41 0  </DataArray>
</Points>
<Cells>
<DataArray  type="UInt32"  Name="connectivity"  format="ascii">0 1 9  1 9 10  1 2 11  1 10 11  2 3 11  3 11 12  3 4 13  3 12 13  4 5 13  5 13 14  5 6 15  5 14 15  6 7 15  7 15 16  7 8 17  7 16 17  9 10 19  9 18 19  10 11 19  11 19 20  11 12 21  11 20 21  12 13 21  13 21 22  13 14 23  13 22 23  14 15 23  15 23 24  15 16 25  15 24 25  16 17 25  17 25 26  18 19 27  19 27 28  19 20 29  19 28 29  20 21 29  21 29 30  21 22 31  21 30 31  22 23 31  23 31 32  23 24 33  23 32 33  24 25 33  25 33 34  25 26 35  25 34 35  27 28 37  27 36 37  28 29 37  29 37 38  29 30 39  29 38 39  30 31 39  31 39 40  31 32 41  31 40 41  32 33 41  33 41 42  33 34 43  33 42 43  34 35 43  35 43 44  36 37 45  37 45 46  37 38 47  37 46 47  38 39 47  39 47 48  39 40 49  39 48 49  40 41 49  41 49 50  41 42 51  41 50 51  42 43 51  43 51 52  43 44 53  43 52 53  45 46 55  45 54 55  46 47 55  47 55 56  47 48 57  47 56 57  48 49 57  49 57 58  49 50 59  49 58 59  50 51 59  51 59 60  51 52 61  51 60 61  52 53 61  53 61 62  54 55 63  55 63 64  55 56 65  55 64 65  56 57 65  57 65 66  57 58 67  57 66 67  58 59 67  59 67 68  59 60 69  59 68 69  60 61 69  61 69 70  61 62 71  61 70 71  63 64 73  63 72 73  64 65 73  65 73 74  65 66 75  65 74 75  66 67 75  67 75 76  67 68 77  67 76 77  68 69 77  69 77 78  69 70 79  69 78 79  70 71 79  71 79 80  </DataArray>
<DataArray  type="UInt32"  Name="offsets"  format="ascii">3 6 9 12 15 18 21 24 27 30 33 36 39 42 45 48 51 54 57 60 63 66 69 72 75 78 81 84 87 90 93 96 99 102 105 108 111 114 117 120 123 126 129 132 135 138 141 144 147 150 153 156 159 162 165 168 171 174 177 180 183 186 189 192 195 198 201 204 207 210 213 216 219 222 225 228 231 234 237 240 243 246 249 252 255 258 261 264 267 270 273 276 279 282 285 288 291 294 297 300 303 306 309 312 315 318 321 324 327 330 333 336 339 342 345 348 351 354 357 360 363 366 369 372 375 378 381 384 </DataArray>
<DataArray  type="UInt8"  Name="types"  format="ascii">5 5 5 5 5 5 5 5 5 5 5 5 5 5 5 5 5 5 5 5 5 5 5 5 5 5 5 5 5 5 5 5 5 5 5 5 5 5 5 5 5 5 5 5 5 5 5 5 5 5 5 5 5 5 5 5 5 5 5 5 5 5 5 5 5 5 5 5 5 5 5 5 5 5 5 5 5 5 5 5 5 5 5 5 5 5 5 5 5 5 5 5 5 5 5 5 5 5 5 5 5 5 5 5 5 5 5 5 5 5 5 5 5 5 5 5 5 5 5 5 5 5 5 5 5 5 5 5 </DataArray>
</Cells>
<PointData  Vectors="f_16"> 
<DataArray  type="Float64"  Name="f_16"  NumberOfComponents="3" format="ascii">2.0489855644113508e-05 -4.4266071218543477e-09 0.0000000000000000e+00  -1.2013484786643277e-06 -1.3139600101609409e-11 0.0000000000000000e+00  1.0434987882101445e-06 -9.7204522525450310e-10 0.0000000000000000e+00  -8.2926286131370613e-06 9.4784979359254185e-10 0.0000000000000000e+00  -2.9401742111843592e-06 1.2013488166179294e-11 0.0000000000000000e+00  -4.7736399409409985e-06 -7.8183752508350347e-10 0.0000000000000000e+00  -5.1848425177341225e-06 -4.2276277340949159e-10 0.0000000000000000e+00  -5.9221455071724725e-06 -5.2119161836459829e-10 0.0000000000000000e+00  -1.2390257221704741e-06 1.8106826797466714e-10 0.0000000000000000e+00  6.5624702212251596e-01 -3.0544366812826542e-10 0.0000000000000000e+00  6.5712446890541099e-01 -1.2772190784954507e-04 0.0000000000000000e+00  6.5837010042979716e-01 1.3372176751707477e-04 0.0000000000000000e+00  6.5820186247219192e-01 -3.2428329948688395e-05 0.0000000000000000e+00  6.5876775755434391e-01 -1.9572931663094022e-05 0.0000000000000000e+00  6.5862680381419114e-01 3.8506782018510055e-05 0.0000000000000000e+00  6.5834873940628669e-01 6.2975336957916251e-07 0.0000000000000000e+00  6.5750319622556042e-01 2.8077051046635058e-05 0.0000000000000000e+00  6.5749876388696982e-01 -4.2462978458196974e-05 0.0000000000000000e+00  1.1249841011748423e+00 1.0074778905952450e-09 0.0000000000000000e+00  1.1255472417929329e+00 -6.2036081530002728e-04 0.0000000000000000e+00  1.1238778938288159e+00 -1.5459460528434790e-04 0.0000000000000000e+00  1.1264589058576699e+00 -1.3075526612260375e-04 0.0000000000000000e+00  1.1256100600013708e+00 1.0846468328026342e-05 0.0000000000000000e+00  1.1252504815260362e+00 1.8305454453346277e-04 0.0000000000000000e+00  1.1251968022412209e+00 1.4978122098389005e-04 0.0000000000000000e+00  1.1246410105062761e+00 2.1297135637740006e-04 0.0000000000000000e+00  1.1241510694107906e+00 1.4539035918499443e-04 0.0000000000000000e+00  1.4062394803777818e+00 -7.3738068985726946e-11 0.0000000000000000e+00  1.4055823285553182e+00 -1.6382926220485949e-04 0.0000000000000000e+00  1.4068456409840000e+00 -1.4319649039092717e-04 0.0000000000000000e+00  1.4047249858221147e+00 -1.8249424108139693e-04 0.0000000000000000e+00  1.4071976652856439e+00 -1.8010115236836042e-04 0.0000000000000000e+00  1.4061162386592427e+00 9.8906789757523909e-05 0.0000000000000000e+00  1.4057922497615851e+00 1.6052945613012913e-04 0.0000000000000000e+00  1.4056611040149423e+00 2.1274547492733023e-04 0.0000000000000000e+00  1.4055672233605725e+00 1.3332786181883684e-04 0.0000000000000000e+00  1.4999818423758549e+00 8.8390083583858807e-10 0.0000000000000000e+00  1.5000688686580415e+00 -1.5737982687330865e-04 0.0000000000000000e+00  1.4988971432984808e+00 -1.8401630152545728e-04 0.0000000000000000e+00  1.4995754353116979e+00 -1.2656049220301086e-04 0.0000000000000000e+00  1.4973388002728738e+00 -6.4877184100325095e-05 0.0000000000000000e+00  1.4993342170282253e+00 8.3841960568526412e-05 0.0000000000000000e+00  1.4985542599866999e+00 2.8295922327245857e-04 0.0000000000000000e+00  1.4981299139598803e+00 4.6061119852786086e-04 0.0000000000000000e+00  1.4981870063711817e+00 3.4484209809087097e-04 0.0000000000000000e+00  1.4062361156470511e+00 6.2765589993319205e-10 0.0000000000000000e+00  1.4054900782150945e+00 -5.4971861570492250e-05 0.0000000000000000e+00  1.4059415485774589e+00 -2.4088384245971907e-04 0.0000000000000000e+00  1.4049528336847483e+00 -9.2451447103543505e-05 0.0000000000000000e+00  1.4064630181037721e+00 6.2995453671993922e-05 0.0000000000000000e+00  1.4036836989201718e+00 5.5730431864356861e-05 0.0000000000000000e+00  1.4066743549626204e+00 2.0560708892460925e-04 0.0000000000000000e+00  1.4051898771896330e+00 3.5426778986599110e-04 0.0000000000000000e+00  1.4050594179177514e+00 3.5863054621712142e-04 0.0000000000000000e+00  1.1249860145916841e+00 -7.7581893950964035e-11 0.0000000000000000e+00  1.1252786239382764e+00 1.9090775441572670e-04 0.0000000000000000e+00  1.1248848886746210e+00 -7.5435812118876080e-05 0.0000000000000000e+00  1.1244813886522957e+00 -7.5299851588809315e-05 0.0000000000000000e+00  1.1240348974531911e+00 -2.4329101685768879e-05 0.0000000000000000e+00  1.1247762883212982e+00 -1.2144291636596375e-05 0.0000000000000000e+00  1.1225722023076712e+00 2.1084096234775732e-04 0.0000000000000000e+00  1.1250485173652378e+00 4.3538906961906030e-04 0.0000000000000000e+00  1.1240479898460594e+00 5.1877390739233861e-04 0.0000000000000000e+00  6.5624143952209180e-01 -3.0971575233063176e-10 0.0000000000000000e+00  6.5587935829168664e-01 2.1961637710747333e-05 0.0000000000000000e+00  6.5653615433293067e-01 -2.0475256248272749e-04 0.0000000000000000e+00  6.5618686121200065e-01 -2.0987114304498240e-05 0.0000000000000000e+00  6.5664104636152298e-01 -2.0885813731671960e-05 0.0000000000000000e+00  6.5570320934115589e-01 3.5953274607417615e-05 0.0000000000000000e+00  6.5787250736692959e-01 2.2126236408725376e-04 0.0000000000000000e+00  6.5573434608966708e-01 1.7475526115905536e-04 0.0000000000000000e+00  6.5981810474492908e-01 5.7222215202791917e-04 0.0000000000000000e+00  -7.0282524417950767e-06 -8.1590248009373572e-10 0.0000000000000000e+00  -7.2266076388586267e-06 -4.9940752407623134e-10 0.0000000000000000e+00  -4.6031451272269099e-06 -2.0639973776523386e-10 0.0000000000000000e+00  -6.2740756351633042e-06 8.4783516446535223e-10 0.0000000000000000e+00  -2.2752469452422626e-06 1.0952201249001044e-09 0.0000000000000000e+00  -6.9281825178847717e-06 -1.3958623993658142e-09 0.0000000000000000e+00  -7.0868397511890115e-06 -4.0428495810291234e-10 0.0000000000000000e+00  4.7841785208386167e-07 3.8462783980373066e-10 0.0000000000000000e+00  -1.0283448599469412e-05 -4.5160244156848367e-09 0.0000000000000000e+00  </DataArray> 
</PointData> 
</Piece>
</UnstructuredGrid>
</VTKFile>