<?xml version="1.0"?>
<VTKFile type="UnstructuredGrid"  version="0.1"  >
<UnstructuredGrid>
<Piece  NumberOfPoints="81" NumberOfCells="128">
<Points>
<DataArray  type="Float64"  NumberOfComponents="3"  format="ascii">0 0 0  0.275 0 0  0.55 0 0  0.8250000000000001 0 0  1.1 0 0  1.375 0 0  1.65 0 0  1.925 0 0  2.2 0 0  0 0.05125 0  0.275 0.05125 0  0.55 0.05125 0  0.8250000000000001 0.05125 0  1.1 0.05125 0  1.375 0.05125 0  1.65 0.05125 0  1.925 0.05125 0  2.2 0.05125 0  0 0.1025 0  0.275 0.1025 0  0.55 0.1025 0  0.8250000000000001 0.1025 0  1.1 0.1025 0  1.375 0.1025 0  1.65 0.1025 0  1.925 0.1025 0  2.2 0.1025 0  0 0.15375 0  0.275 0.15375 0  0.55 0.15375 0  0.8250000000000001 0.15375 0  1.1 0.15375 0  1.375 0.15375 0  1.65 0.15375 0  1.925 0.15375 0  2.2 0.15375 0  0 0.205 0  0.275 0.205 0  0.55 0.205 0  0.8250000000000001 0.205 0  1.1 0.205 0  1.375 0.205 0  1.65 0.205 0  1.925 0.205 0  2.2 0.205 0  0 0.25625 0  0.275 0.25625 0  0.55 0.25625 0  0.8250000000000001 0.25625 0  1.1 0.25625 0  1.375 0.25625 0  1.65 0.25625 0  1.925 0.25625 0  2.2 0.25625 0  0 0.3075 0  0.275 0.3075 0  0.55 0.3075 0  0.8250000000000001 0.3075 0  1.1 0.3075 0  1.375 0.3075 0  1.65 0.3075 0  1.925 0.3075 0  2.2 0.3075 0  0 0.35875 0  0.275 0.35875 0  0.55 0.35875 0  0.8250000000000001 0.35875 0  1.1 0.35875 0  1.375 0.35875 0  1.65 0.35875 0  1.925 0.35875 0  2.2 0.35875 0  0 0.41 0  0.275 0.41 0  0.55 0.41 0  0.8250000000000001 0.41 0  1.1 0.41 0  1.375 0.41 0  1.65 0.41 0  1.925 0.41 0  2.2 0.41 0  </DataArray>
</Points>
<Cells>
<DataArray  type="UInt32"  Name="connectivity"  format="ascii">0 1 9  1 9 10  1 2 11  1 10 11  2 3 11  3 11 12  3 4 13  3 12 13  4 5 13  5 13 14  5 6 15  5 14 15  6 7 15  7 15 16  7 8 17  7 16 17  9 10 19  9 18 19  10 11 19  11 19 20  11 12 21  11 20 21  12 13 21  13 21 22  13 14 23  13 22 23  14 15 23  15 23 24  15 16 25  15 24 25  16 17 25  17 25 26  18 19 27  19 27 28  19 20 29  19 28 29  20 21 29  21 29 30  21 22 31  21 30 31  22 23 31  23 31 32  23 24 33  23 32 33  24 25 33  25 33 34  25 26 35  25 34 35  27 28 37  27 36 37  28 29 37  29 37 38  29 30 39  29 38 39  30 31 39  31 39 40  31 32 41  31 40 41  32 33 41  33 41 42  33 34 43  33 42 43  34 35 43  35 43 44  36 37 45  37 45 46  37 38 47  37 46 47  38 39 47  39 47 48  39 40 49  39 48 49  40 41 49  41 49 50  41 42 51  41 50 51  42 43 51  43 51 52  43 44 53  43 52 53  45 46 55  45 54 55  46 47 55  47 55 56  47 48 57  47 56 57  48 49 57  49 57 58  49 50 59  49 58 59  50 51 59  51 59 60  51 52 61  51 60 61  52 53 61  53 61 62  54 55 63  55 63 64  55 56 65  55 64 65  56 57 65  57 65 66  57 58 67  57 66 67  58 59 67  59 67 68  59 60 69  59 68 69  60 61 69  61 69 70  61 62 71  61 70 71  63 64 73  63 72 73  64 65 73  65 73 74  65 66 75  65 74 75  66 67 75  67 75 76  67 68 77  67 76 77  68 69 77  69 77 78  69 70 79  69 78 79  70 71 79  71 79 80  </DataArray>
<DataArray  type="UInt32"  Name="offsets"  format="ascii">3 6 9 12 15 18 21 24 27 30 33 36 39 42 45 48 51 54 57 60 63 66 69 72 75 78 81 84 87 90 93 96 99 102 105 108 111 114 117 120 123 126 129 132 135 138 141 144 147 150 153 156 159 162 165 168 171 174 177 180 183 186 189 192 195 198 201 204 207 210 213 216 219 222 225 228 231 234 237 240 243 246 249 252 255 258 261 264 267 270 273 276 279 282 285 288 291 294 297 300 303 306 309 312 315 318 321 324 327 330 333 336 339 342 345 348 351 354 357 360 363 366 369 372 375 378 381 384 </DataArray>
<DataArray  type="UInt8"  Name="types"  format="ascii">5 5 5 5 5 5 5 5 5 5 5 5 5 5 5 5 5 5 5 5 5 5 5 5 5 5 5 5 5 5 5 5 5 5 5 5 5 5 5 5 5 5 5 5 5 5 5 5 5 5 5 5 5 5 5 5 5 5 5 5 5 5 5 5 5 5 5 5 5 5 5 5 5 5 5 5 5 5 5 5 5 5 5 5 5 5 5 5 5 5 5 5 5 5 5 5 5 5 5 5 5 5 5 5 5 5 5 5 5 5 5 5 5 5 5 5 5 5 5 5 5 5 5 5 5 5 5 5 </DataArray>
</Cells>
<PointData  Vectors="f_16"> 
<DataArray  type="Float64"  Name="f_16"  NumberOfComponents="3" format="ascii">2.0489964188160794e-05 -4.4192569195270705e-09 0.0000000000000000e+00  -1.2012728970919671e-06 -1.4445110890754569e-11 0.0000000000000000e+00  1.0434346835977911e-06 -9.4530799593622471e-10 0.0000000000000000e+00  -8.2927254802697829e-06 9.2365237749891505e-10 0.0000000000000000e+00  -2.9400160036003324e-06 -3.1438166342975679e-11 0.0000000000000000e+00  -4.7734786587597932e-06 -7.3637485243263810e-10 0.0000000000000000e+00  -5.1850144151516119e-06 -3.7384019741112412e-10 0.0000000000000000e+00  -5.9222711792812156e-06 -5.6192708778255026e-10 0.0000000000000000e+00  -1.2389380355212339e-06 1.7158601721172868e-10 0.0000000000000000e+00  6.5624702224753384e-01 -3.3879407839954526e-10 0.0000000000000000e+00  6.5712422992328146e-01 -1.2750846700681102e-04 0.0000000000000000e+00  6.5836973800248499e-01 1.3346154088835581e-04 0.0000000000000000e+00  6.5820208902460764e-01 -3.2738171689943421e-05 0.0000000000000000e+00  6.5876797237573848e-01 -1.9286012484542274e-05 0.0000000000000000e+00  6.5862637943740832e-01 3.8625033661357309e-05 0.0000000000000000e+00  6.5834522640342052e-01 3.5891296057250652e-07 0.0000000000000000e+00  6.5750186006055367e-01 2.8485076347287107e-05 0.0000000000000000e+00  6.5749965943485300e-01 -4.2416133169454266e-05 0.0000000000000000e+00  1.1249841012915622e+00 9.4566430746172700e-10 0.0000000000000000e+00  1.1255467507930386e+00 -6.2021575591777404e-04 0.0000000000000000e+00  1.1238767523519737e+00 -1.5616503464632335e-04 0.0000000000000000e+00  1.1264631593820675e+00 -1.3179968115228539e-04 0.0000000000000000e+00  1.1256123326879202e+00 1.3423693158942767e-05 0.0000000000000000e+00  1.1252444469269505e+00 1.8409405914531686e-04 0.0000000000000000e+00  1.1251925594272918e+00 1.4734857171804048e-04 0.0000000000000000e+00  1.1246440011201353e+00 2.1369396558997410e-04 0.0000000000000000e+00  1.1241490274102790e+00 1.4546562256306022e-04 0.0000000000000000e+00  1.4062394805322471e+00 -1.1177519667098055e-10 0.0000000000000000e+00  1.4055788518590033e+00 -1.6406910487585198e-04 0.0000000000000000e+00  1.4068517983740574e+00 -1.4575482816829973e-04 0.0000000000000000e+00  1.4047380033652672e+00 -1.8127015486470836e-04 0.0000000000000000e+00  1.4071900998934077e+00 -1.7613390558135464e-04 0.0000000000000000e+00  1.4061000456524322e+00 9.6994041912853966e-05 0.0000000000000000e+00  1.4057959048527615e+00 1.5756833812575165e-04 0.0000000000000000e+00  1.4056692598741387e+00 2.1553138820776252e-04 0.0000000000000000e+00  1.4055558652035418e+00 1.3299402812390573e-04 0.0000000000000000e+00  1.4999818425207956e+00 8.8035793100293016e-10 0.0000000000000000e+00  1.5000634256437309e+00 -1.5727008596729078e-04 0.0000000000000000e+00  1.4989086673261725e+00 -1.8394988954096504e-04 0.0000000000000000e+00  1.4995931555133106e+00 -1.2682831063251114e-04 0.0000000000000000e+00  1.4973237115493996e+00 -6.4785043322670521e-05 0.0000000000000000e+00  1.4993133952290694e+00 8.4504609852926259e-05 0.0000000000000000e+00  1.4985646719231631e+00 2.8317757249191066e-04 0.0000000000000000e+00  1.4981392098653494e+00 4.6087204890000717e-04 0.0000000000000000e+00  1.4981770357217894e+00 3.4549800376148501e-04 0.0000000000000000e+00  1.4062361158083836e+00 6.6403533796368165e-10 0.0000000000000000e+00  1.4054868626205161e+00 -5.4624631571703807e-05 0.0000000000000000e+00  1.4059480200780712e+00 -2.3821712996333649e-04 0.0000000000000000e+00  1.4049652547772677e+00 -9.3890677342596668e-05 0.0000000000000000e+00  1.4064555117047868e+00 5.9185479535069005e-05 0.0000000000000000e+00  1.4036690675587775e+00 5.8524576846919709e-05 0.0000000000000000e+00  1.4066790645133243e+00 2.0894999886845593e-04 0.0000000000000000e+00  1.4051995336900114e+00 3.5198576854446095e-04 0.0000000000000000e+00  1.4050515130550942e+00 3.6021814343256144e-04 0.0000000000000000e+00  1.1249860146929411e+00 -1.3268044751764251e-11 0.0000000000000000e+00  1.1252781248100090e+00 1.9082851980026764e-04 0.0000000000000000e+00  1.1248840968814948e+00 -7.3761598106544490e-05 0.0000000000000000e+00  1.1244857820790872e+00 -7.4367801902931483e-05 0.0000000000000000e+00  1.1240373001118231e+00 -2.6867513413922001e-05 0.0000000000000000e+00  1.1247716347097476e+00 -1.2653869289559220e-05 0.0000000000000000e+00  1.1225705452858392e+00 2.1373770111600843e-04 0.0000000000000000e+00  1.1250550164055428e+00 4.3507873286570089e-04 0.0000000000000000e+00  1.1240516305895973e+00 5.1929566421254003e-04 0.0000000000000000e+00  6.5624143963916615e-01 -2.7626755898534790e-10 0.0000000000000000e+00  6.5587912289384209e-01 2.1748881282746200e-05 0.0000000000000000e+00  6.5653587042591666e-01 -2.0444428999476892e-04 0.0000000000000000e+00  6.5618741088895416e-01 -2.0632851906567809e-05 0.0000000000000000e+00  6.5664186033083394e-01 -2.1194358291755162e-05 0.0000000000000000e+00  6.5570410683903724e-01 3.5910205461370512e-05 0.0000000000000000e+00  6.5787147950781955e-01 2.2173963746191115e-04 0.0000000000000000e+00  6.5573705583042619e-01 1.7455366919327711e-04 0.0000000000000000e+00  6.5982457400233363e-01 5.7233143996428780e-04 0.0000000000000000e+00  -7.0281416309228485e-06 -8.2472271802104229e-10 0.0000000000000000e+00  -7.2265343621241946e-06 -5.0313256374870771e-10 0.0000000000000000e+00  -4.6032393320152476e-06 -2.3762596845888215e-10 0.0000000000000000e+00  -6.2741986317236217e-06 8.7000990302010150e-10 0.0000000000000000e+00  -2.2750884066954226e-06 1.1393208504095425e-09 0.0000000000000000e+00  -6.9280355323615782e-06 -1.4370022062494475e-09 0.0000000000000000e+00  -7.0870581610396916e-06 -4.4850806129517012e-10 0.0000000000000000e+00  4.7828591356571676e-07 4.2638648576134662e-10 0.0000000000000000e+00  -1.0283385788715962e-05 -4.5113280885840574e-09 0.0000000000000000e+00  </DataArray> 
</PointData> 
</Piece>
</UnstructuredGrid>
</VTKFile>