<?xml version="1.0"?>
<VTKFile type="UnstructuredGrid"  version="0.1"  >
<UnstructuredGrid>
<Piece  NumberOfPoints="81" NumberOfCells="128">
<Points>
<DataArray  type="Float64"  NumberOfComponents="3"  format="ascii">0 0 0  0.275 0 0  0.55 0 0  0.8250000000000001 0 0  1.1 0 0  1.375 0 0  1.65 0 0  1.925 0 0  2.2 0 0  0 0.05125 0  0.275 0.05125 0  0.55 0.05125 0  0.8250000000000001 0.05125 0  1.1 0.05125 0  1.375 0.05125 0  1.65 0.05125 0  1.925 0.05125 0  2.2 0.05125 0  0 0.1025 0  0.275 0.1025 0  0.55 0.1025 0  0.8250000000000001 0.1025 0  1.1 0.1025 0  1.375 0.1025 0  1.65 0.1025 0  1.925 0.1025 0  2.2 0.1025 0  0 0.15375 0  0.275 0.15375 0  0.55 0.15375 0  0.8250000000000001 0.15375 0  1.1 0.15375 0  1.375 0.15375 0  1.65 0.15375 0  1.925 0.15375 0  2.2 0.15375 0  0 0.205 0  0.275 0.205 0  0.55 0.205 0  0.8250000000000001 0.205 0  1.1 0.205 0  1.375 0.205 0  1.65 0.205 0  1.925 0.205 0  2.2 0.205 0  0 0.25625 0  0.275 0.25625 0  0.55 0.25625 0  0.8250000000000001 0.25625 0  1.1 0.25625 0  1.375 0.25625 0  1.65 0.25625 0  1.925 0.25625 0  2.2 0.25625 0  0 0.3075 0  0.275 0.3075 0  0.55 0.3075 0  0.8250000000000001 0.3075 0  1.1 0.3075 0  1.375 0.3075 0  1.65 0.3075 0  1.925 0.3075 0  2.2 0.3075 0  0 0.35875 0  0.275 0.35875 0  0.55 0.35875 0  0.8250000000000001 0.35875 0  1.1 0.35875 0  1.375 0.35875 0  1.65 0.35875 0  1.925 0.35875 0  2.2 0.35875 0  0 0.41 0  0.275 0.41 0  0.55 0.41 0  0.8250000000000001 0.41 0  1.1 0.41 0  1.375 0.41 0  1.65 0.41 0  1.925 0.41 0  2.2 0.41 0  </DataArray>
</Points>
<Cells>
<DataArray  type="UInt32"  Name="connectivity"  format="ascii">0 1 9  1 9 10  1 2 11  1 10 11  2 3 11  3 11 12  3 4 13  3 12 13  4 5 13  5 13 14  5 6 15  5 14 15  6 7 15  7 15 16  7 8 17  7 16 17  9 10 19  9 18 19  10 11 19  11 19 20  11 12 21  11 20 21  12 13 21  13 21 22  13 14 23  13 22 23  14 15 23  15 23 24  15 16 25  15 24 25  16 17 25  17 25 26  18 19 27  19 27 28  19 20 29  19 28 29  20 21 29  21 29 30  21 22 31  21 30 31  22 23 31  23 31 32  23 24 33  23 32 33  24 25 33  25 33 34  25 26 35  25 34 35  27 28 37  27 36 37  28 29 37  29 37 38  29 30 39  29 38 39  30 31 39  31 39 40  31 32 41  31 40 41  32 33 41  33 41 42  33 34 43  33 42 43  34 35 43  35 43 44  36 37 45  37 45 46  37 38 47  37 46 47  38 39 47  39 47 48  39 40 49  39 48 49  40 41 49  41 49 50  41 42 51  41 50 51  42 43 51  43 51 52  43 44 53  43 52 53  45 46 55  45 54 55  46 47 55  47 55 56  47 48 57  47 56 57  48 49 57  49 57 58  49 50 59  49 58 59  50 51 59  51 59 60  51 52 61  51 60 61  52 53 61  53 61 62  54 55 63  55 63 64  55 56 65  55 64 65  56 57 65  57 65 66  57 58 67  57 66 67  58 59 67  59 67 68  59 60 69  59 68 69  60 61 69  61 69 70  61 62 71  61 70 71  63 64 73  63 72 73  64 65 73  65 73 74  65 66 75  65 74 75  66 67 75  67 75 76  67 68 77  67 76 77  68 69 77  69 77 78  69 70 79  69 78 79  70 71 79  71 79 80  </DataArray>
<DataArray  type="UInt32"  Name="offsets"  format="ascii">3 6 9 12 15 18 21 24 27 30 33 36 39 42 45 48 51 54 57 60 63 66 69 72 75 78 81 84 87 90 93 96 99 102 105 108 111 114 117 120 123 126 129 132 135 138 141 144 147 150 153 156 159 162 165 168 171 174 177 180 183 186 189 192 195 198 201 204 207 210 213 216 219 222 225 228 231 234 237 240 243 246 249 252 255 258 261 264 267 270 273 276 279 282 285 288 291 294 297 300 303 306 309 312 315 318 321 324 327 330 333 336 339 342 345 348 351 354 357 360 363 366 369 372 375 378 381 384 </DataArray>
<DataArray  type="UInt8"  Name="types"  format="ascii">5 5 5 5 5 5 5 5 5 5 5 5 5 5 5 5 5 5 5 5 5 5 5 5 5 5 5 5 5 5 5 5 5 5 5 5 5 5 5 5 5 5 5 5 5 5 5 5 5 5 5 5 5 5 5 5 5 5 5 5 5 5 5 5 5 5 5 5 5 5 5 5 5 5 5 5 5 5 5 5 5 5 5 5 5 5 5 5 5 5 5 5 5 5 5 5 5 5 5 5 5 5 5 5 5 5 5 5 5 5 5 5 5 5 5 5 5 5 5 5 5 5 5 5 5 5 5 5 </DataArray>
</Cells>
<PointData  Vectors="f_16"> 
<DataArray  type="Float64"  Name="f_16"  NumberOfComponents="3" format="ascii">2.0484531251227450e-05 -3.7982581298240109e-09 0.0000000000000000e+00  -1.2179585158099731e-06 -8.0614027247618091e-10 0.0000000000000000e+00  1.0460482422832325e-06 -3.1550729858696517e-09 0.0000000000000000e+00  -8.2383892266229015e-06 1.7692868267721781e-10 0.0000000000000000e+00  -2.9131106250689900e-06 4.5414611733449945e-09 0.0000000000000000e+00  -4.7866770670807199e-06 1.1253149560497832e-08 0.0000000000000000e+00  -5.3035231102400876e-06 7.3359469760143629e-09 0.0000000000000000e+00  -5.9588657667430888e-06 2.9701024393531196e-08 0.0000000000000000e+00  -1.4704981765402341e-06 3.8958607408848075e-08 0.0000000000000000e+00  6.5624702049316830e-01 2.2793355217449545e-09 0.0000000000000000e+00  6.5742161610466343e-01 -1.1119662917050684e-04 0.0000000000000000e+00  6.5820288585624298e-01 1.1376518304285632e-04 0.0000000000000000e+00  6.5793195887349853e-01 7.3308843333228036e-05 0.0000000000000000e+00  6.5815032992542322e-01 2.4258998843068190e-05 0.0000000000000000e+00  6.5926303708547696e-01 -7.2288884155348763e-06 0.0000000000000000e+00  6.6725774111984870e-01 -2.1261722872053189e-03 0.0000000000000000e+00  6.9400320593801612e-01 -4.5168682995302863e-03 0.0000000000000000e+00  7.3271870374605075e-01 -5.0502128610174649e-03 0.0000000000000000e+00  1.1249841328432204e+00 7.2480551280526782e-09 0.0000000000000000e+00  1.1259202797213403e+00 -8.1254576226029700e-04 0.0000000000000000e+00  1.1234381734580334e+00 -3.8333219332310249e-05 0.0000000000000000e+00  1.1258109153501847e+00 1.6195129883735693e-04 0.0000000000000000e+00  1.1248278814301242e+00 -9.4350507040319713e-05 0.0000000000000000e+00  1.1246137664534497e+00 -8.9486121106899198e-05 0.0000000000000000e+00  1.1258208979774265e+00 -3.0810436006831129e-03 0.0000000000000000e+00  1.1244458386963685e+00 -8.5389700091894581e-03 0.0000000000000000e+00  1.1320697341001231e+00 -1.1414878336956581e-02 0.0000000000000000e+00  1.4062395467364799e+00 3.8915875339332262e-09 0.0000000000000000e+00  1.4056697626708721e+00 -1.8605400755259430e-04 0.0000000000000000e+00  1.4067557175210199e+00 2.8984816968801987e-04 0.0000000000000000e+00  1.4039298655346570e+00 -5.7211393338916415e-05 0.0000000000000000e+00  1.4068495674319810e+00 -3.8551262310267522e-04 0.0000000000000000e+00  1.4074306492535538e+00 -3.4872049641387513e-04 0.0000000000000000e+00  1.4011793244296700e+00 -1.3951779941271355e-03 0.0000000000000000e+00  1.3813843131408026e+00 -5.6776222110884516e-03 0.0000000000000000e+00  1.3501457941446808e+00 -8.8331346458114315e-03 0.0000000000000000e+00  1.4999818750133707e+00 7.3049538176375483e-10 0.0000000000000000e+00  1.5013500140469656e+00 -1.4769151764037569e-04 0.0000000000000000e+00  1.4985688242094555e+00 -1.7341368461094910e-04 0.0000000000000000e+00  1.4981766897653823e+00 -9.8992685973037017e-05 0.0000000000000000e+00  1.4978099404504102e+00 -2.7736119803362086e-05 0.0000000000000000e+00  1.5014129906997382e+00 1.4144154393893812e-04 0.0000000000000000e+00  1.4916702435244116e+00 2.8307428940913128e-04 0.0000000000000000e+00  1.4691135388589107e+00 3.1305585078560735e-04 0.0000000000000000e+00  1.4240886837782241e+00 3.2316787606473137e-05 0.0000000000000000e+00  1.4062361893686941e+00 -3.3471153078479361e-09 0.0000000000000000e+00  1.4055873019781688e+00 -2.0749649024608729e-05 0.0000000000000000e+00  1.4058830091688177e+00 -6.6575053343687020e-04 0.0000000000000000e+00  1.4042201003138983e+00 -1.7358518599465558e-04 0.0000000000000000e+00  1.4062187516434228e+00 3.3205955424236403e-04 0.0000000000000000e+00  1.4051977542417580e+00 5.8149128606894778e-04 0.0000000000000000e+00  1.4024212220862844e+00 1.8442901174973152e-03 0.0000000000000000e+00  1.3811790744110211e+00 5.9666431493663264e-03 0.0000000000000000e+00  1.3494040042979787e+00 8.6328722883797903e-03 0.0000000000000000e+00  1.1249860384862818e+00 -5.0995702517198480e-09 0.0000000000000000e+00  1.1256461010958101e+00 3.8494446193053096e-04 0.0000000000000000e+00  1.1244882520970652e+00 -1.7469973082189332e-04 0.0000000000000000e+00  1.1239364754211489e+00 -3.3494103488035723e-04 0.0000000000000000e+00  1.1234783315048387e+00 1.2696977081860382e-04 0.0000000000000000e+00  1.1245546546208507e+00 3.2747118162602528e-04 0.0000000000000000e+00  1.1237924060970064e+00 3.4156456742956832e-03 0.0000000000000000e+00  1.1252842269635603e+00 8.9690826848563329e-03 0.0000000000000000e+00  1.1312647703682197e+00 1.1654642525990140e-02 0.0000000000000000e+00  6.5624148394783743e-01 -2.7099519768686903e-09 0.0000000000000000e+00  6.5615672070068143e-01 3.8347928010358682e-06 0.0000000000000000e+00  6.5638207744990784e-01 -1.8104131035881485e-04 0.0000000000000000e+00  6.5602104157168650e-01 -1.1402167987401279e-04 0.0000000000000000e+00  6.5624571797389164e-01 -4.9621507516072792e-05 0.0000000000000000e+00  6.5680981519593828e-01 9.2281396464481965e-05 0.0000000000000000e+00  6.6741128153098939e-01 2.3377765907808927e-03 0.0000000000000000e+00  6.9243834100047064e-01 4.6414976891171111e-03 0.0000000000000000e+00  7.3416553731214351e-01 5.4068745920868005e-03 0.0000000000000000e+00  -7.0272403594263360e-06 -1.9710418872891726e-09 0.0000000000000000e+00  -7.2477694176558820e-06 -5.0456864992032537e-10 0.0000000000000000e+00  -4.6035380413472660e-06 3.3279118987285975e-09 0.0000000000000000e+00  -6.2574308556109753e-06 2.2901696452697851e-09 0.0000000000000000e+00  -2.2767509389922882e-06 1.1572530677640972e-08 0.0000000000000000e+00  -6.9526964105368078e-06 -1.4377547933275290e-08 0.0000000000000000e+00  -7.0148900211393001e-06 -2.6833583793159997e-09 0.0000000000000000e+00  6.5562997756135248e-07 2.1236034765176524e-08 0.0000000000000000e+00  -1.0261198075022557e-05 -9.3608138978716194e-08 0.0000000000000000e+00  </DataArray> 
</PointData> 
</Piece>
</UnstructuredGrid>
</VTKFile>