<?xml version="1.0"?>
<VTKFile type="UnstructuredGrid"  version="0.1"  >
<UnstructuredGrid>
<Piece  NumberOfPoints="81" NumberOfCells="128">
<Points>
<DataArray  type="Float64"  NumberOfComponents="3"  format="ascii">0 0 0  0.275 0 0  0.55 0 0  0.8250000000000001 0 0  1.1 0 0  1.375 0 0  1.65 0 0  1.925 0 0  2.2 0 0  0 0.05125 0  0.275 0.05125 0  0.55 0.05125 0  0.8250000000000001 0.05125 0  1.1 0.05125 0  1.375 0.05125 0  1.65 0.05125 0  1.925 0.05125 0  2.2 0.05125 0  0 0.1025 0  0.275 0.1025 0  0.55 0.1025 0  0.8250000000000001 0.1025 0  1.1 0.1025 0  1.375 0.1025 0  1.65 0.1025 0  1.925 0.1025 0  2.2 0.1025 0  0 0.15375 0  0.275 0.15375 0  0.55 0.15375 0  0.8250000000000001 0.15375 0  1.1 0.15375 0  1.375 0.15375 0  1.65 0.15375 0  1.925 0.15375 0  2.2 0.15375 0  0 0.205 0  0.275 0.205 0  0.55 0.205 0  0.8250000000000001 0.205 0  1.1 0.205 0  1.375 0.205 0  1.65 0.205 0  1.925 0.205 0  2.2 0.205 0  0 0.25625 0  0.275 0.25625 0  0.55 0.25625 0  0.8250000000000001 0.25625 0  1.1 0.25625 0  1.375 0.25625 0  1.65 0.25625 0  1.925 0.25625 0  2.2 0.25625 0  0 0.3075 0  0.275 0.3075 0  0.55 0.3075 0  0.8250000000000001 0.3075 0  1.1 0.3075 0  1.375 0.3075 0  1.65 0.3075 0  1.925 0.3075 0  2.2 0.3075 0  0 0.35875 0  0.275 0.35875 0  0.55 0.35875 0  0.8250000000000001 0.35875 0  1.1 0.35875 0  1.375 0.35875 0  1.65 0.35875 0  1.925 0.35875 0  2.2 0.35875 0  0 0.41 0  0.275 0.41 0  0.55 0.41 0  0.8250000000000001 0.41 0  1.1 0.41 0  1.375 0.41 0  1.65 0.41 0  1.925 0.41 0  2.2 0.41 0  </DataArray>
</Points>
<Cells>
<DataArray  type="UInt32"  Name="connectivity"  format="ascii">0 1 9  1 9 10  1 2 11  1 10 11  2 3 11  3 11 12  3 4 13  3 12 13  4 5 13  5 13 14  5 6 15  5 14 15  6 7 15  7 15 16  7 8 17  7 16 17  9 10 19  9 18 19  10 11 19  11 19 20  11 12 21  11 20 21  12 13 21  13 21 22  13 14 23  13 22 23  14 15 23  15 23 24  15 16 25  15 24 25  16 17 25  17 25 26  18 19 27  19 27 28  19 20 29  19 28 29  20 21 29  21 29 30  21 22 31  21 30 31  22 23 31  23 31 32  23 24 33  23 32 33  24 25 33  25 33 34  25 26 35  25 34 35  27 28 37  27 36 37  28 29 37  29 37 38  29 30 39  29 38 39  30 31 39  31 39 40  31 32 41  31 40 41  32 33 41  33 41 42  33 34 43  33 42 43  34 35 43  35 43 44  36 37 45  37 45 46  37 38 47  37 46 47  38 39 47  39 47 48  39 40 49  39 48 49  40 41 49  41 49 50  41 42 51  41 50 51  42 43 51  43 51 52  43 44 53  43 52 53  45 46 55  45 54 55  46 47 55  47 55 56  47 48 57  47 56 57  48 49 57  49 57 58  49 50 59  49 58 59  50 51 59  51 59 60  51 52 61  51 60 61  52 53 61  53 61 62  54 55 63  55 63 64  55 56 65  55 64 65  56 57 65  57 65 66  57 58 67  57 66 67  58 59 67  59 67 68  59 60 69  59 68 69  60 61 69  61 69 70  61 62 71  61 70 71  63 64 73  63 72 73  64 65 73  65 73 74  65 66 75  65 74 75  66 67 75  67 75 76  67 68 77  67 76 77  68 69 77  69 77 78  69 70 79  69 78 79  70 71 79  71 79 80  </DataArray>
<DataArray  type="UInt32"  Name="offsets"  format="ascii">3 6 9 12 15 18 21 24 27 30 33 36 39 42 45 48 51 54 57 60 63 66 69 72 75 78 81 84 87 90 93 96 99 102 105 108 111 114 117 120 123 126 129 132 135 138 141 144 147 150 153 156 159 162 165 168 171 174 177 180 183 186 189 192 195 198 201 204 207 210 213 216 219 222 225 228 231 234 237 240 243 246 249 252 255 258 261 264 267 270 273 276 279 282 285 288 291 294 297 300 303 306 309 312 315 318 321 324 327 330 333 336 339 342 345 348 351 354 357 360 363 366 369 372 375 378 381 384 </DataArray>
<DataArray  type="UInt8"  Name="types"  format="ascii">5 5 5 5 5 5 5 5 5 5 5 5 5 5 5 5 5 5 5 5 5 5 5 5 5 5 5 5 5 5 5 5 5 5 5 5 5 5 5 5 5 5 5 5 5 5 5 5 5 5 5 5 5 5 5 5 5 5 5 5 5 5 5 5 5 5 5 5 5 5 5 5 5 5 5 5 5 5 5 5 5 5 5 5 5 5 5 5 5 5 5 5 5 5 5 5 5 5 5 5 5 5 5 5 5 5 5 5 5 5 5 5 5 5 5 5 5 5 5 5 5 5 5 5 5 5 5 5 </DataArray>
</Cells>
<PointData  Vectors="f_16"> 
<DataArray  type="Float64"  Name="f_16"  NumberOfComponents="3" format="ascii">2.1067388710007226e-05 -3.7247601684691300e-08 0.0000000000000000e+00  -1.0022139369597858e-06 -4.4742160223080985e-08 0.0000000000000000e+00  1.8222645465530907e-06 -5.5330044567566371e-08 0.0000000000000000e+00  -8.5648878240642659e-06 8.2914256239276590e-08 0.0000000000000000e+00  -4.0017133943664572e-06 -3.4321183672291111e-08 0.0000000000000000e+00  -5.5614791894084264e-06 1.0737404853646398e-07 0.0000000000000000e+00  -7.3048835193347434e-06 1.3373038670067496e-08 0.0000000000000000e+00  -6.8927606935111047e-06 -6.8491438281440502e-08 0.0000000000000000e+00  -3.9223569800370189e-06 3.7936133567111053e-08 0.0000000000000000e+00  6.5624711348431986e-01 2.1787145441473604e-08 0.0000000000000000e+00  6.6323021462430720e-01 -1.4417233003783010e-03 0.0000000000000000e+00  6.6574283552321389e-01 -5.9205851135843998e-04 0.0000000000000000e+00  7.0017416393094956e-01 -7.8130002606137446e-03 0.0000000000000000e+00  8.0746430935284075e-01 -1.7185367139767170e-02 0.0000000000000000e+00  9.0026559115233118e-01 -5.1292709952252121e-03 0.0000000000000000e+00  9.0190732804780882e-01 2.9484927993946573e-03 0.0000000000000000e+00  9.0655339203978857e-01 -5.9189575819972732e-03 0.0000000000000000e+00  8.8976380965196433e-01 8.7001715446490702e-03 0.0000000000000000e+00  1.1249841677216368e+00 -2.5212566231969994e-08 0.0000000000000000e+00  1.1267253973128770e+00 -6.0195541116120734e-04 0.0000000000000000e+00  1.1183743903447980e+00 -6.7663239646896154e-04 0.0000000000000000e+00  1.1202156030739756e+00 -1.8434309626780932e-02 0.0000000000000000e+00  1.1121934803964266e+00 -2.6758149461493911e-02 0.0000000000000000e+00  1.1537165219758398e+00 -1.6477581841514575e-02 0.0000000000000000e+00  1.1855502651629912e+00 2.8512976147657769e-03 0.0000000000000000e+00  1.1732966639003257e+00 -9.3943918228422303e-03 0.0000000000000000e+00  1.1849990977316931e+00 7.4572481706966813e-03 0.0000000000000000e+00  1.4062397075003525e+00 -4.0572422749116325e-08 0.0000000000000000e+00  1.4027570633646020e+00 1.4032992527293058e-03 0.0000000000000000e+00  1.3977166105775740e+00 -1.4022271016998703e-03 0.0000000000000000e+00  1.3848032013929878e+00 -1.2582839477233971e-02 0.0000000000000000e+00  1.3266543878404553e+00 -1.6371870400214032e-02 0.0000000000000000e+00  1.2212909611062828e+00 -1.9727122952129646e-02 0.0000000000000000e+00  1.2074362144468742e+00 1.7974068981186297e-03 0.0000000000000000e+00  1.2081870509361929e+00 -2.2555812876456278e-03 0.0000000000000000e+00  1.2191651323767558e+00 4.2887491859087542e-03 0.0000000000000000e+00  1.4999817284064876e+00 -3.3383456537613818e-08 0.0000000000000000e+00  1.4986490971262623e+00 -1.4443730570972991e-04 0.0000000000000000e+00  1.4887836823304299e+00 -8.9691043303691232e-05 0.0000000000000000e+00  1.4778461510322782e+00 2.6441648647883706e-05 0.0000000000000000e+00  1.3959935032426445e+00 -4.3075183102326632e-05 0.0000000000000000e+00  1.2464850533953591e+00 2.7561856380149404e-05 0.0000000000000000e+00  1.2076680837151432e+00 1.4687475218537883e-04 0.0000000000000000e+00  1.2084728255081270e+00 2.3956164907110281e-04 0.0000000000000000e+00  1.2202380149778951e+00 5.1522136085481479e-05 0.0000000000000000e+00  1.4062364875805067e+00 4.4543039225006409e-09 0.0000000000000000e+00  1.4027207801170496e+00 -1.5623529992143054e-03 0.0000000000000000e+00  1.3969176364563358e+00 1.1859221898768136e-03 0.0000000000000000e+00  1.3853266055483444e+00 1.2516530082619551e-02 0.0000000000000000e+00  1.3262718226410248e+00 1.6349412430875683e-02 0.0000000000000000e+00  1.2189335808992774e+00 1.9722097192672924e-02 0.0000000000000000e+00  1.2088052608553885e+00 -1.6961731246432281e-03 0.0000000000000000e+00  1.2075913411954329e+00 2.4861014800251725e-03 0.0000000000000000e+00  1.2184156692245791e+00 -4.4657588214070979e-03 0.0000000000000000e+00  1.1249858883768677e+00 1.3211924245002439e-08 0.0000000000000000e+00  1.1264604493754298e+00 1.7389699537073816e-04 0.0000000000000000e+00  1.1195999387938771e+00 5.6539965244291129e-04 0.0000000000000000e+00  1.1188891836412529e+00 1.8408627171235190e-02 0.0000000000000000e+00  1.1117428720851963e+00 2.6834975357737625e-02 0.0000000000000000e+00  1.1540409829147069e+00 1.6471941179980493e-02 0.0000000000000000e+00  1.1835591138528314e+00 -2.7632501837520228e-03 0.0000000000000000e+00  1.1736585989803747e+00 9.7968826163620706e-03 0.0000000000000000e+00  1.1843301468606076e+00 -7.2700007334666724e-03 0.0000000000000000e+00  6.5624170688305572e-01 -2.9973243964812549e-08 0.0000000000000000e+00  6.6190272476826606e-01 1.3275533261068889e-03 0.0000000000000000e+00  6.6419616552028271e-01 5.8654761795232807e-04 0.0000000000000000e+00  6.9894793217119966e-01 7.7948160045249199e-03 0.0000000000000000e+00  8.0658365302389357e-01 1.7150995716610478e-02 0.0000000000000000e+00  8.9879417781407511e-01 5.1414559710247281e-03 0.0000000000000000e+00  9.0176928406957357e-01 -2.8522589767175904e-03 0.0000000000000000e+00  9.0440387280637191e-01 6.0047420563743396e-03 0.0000000000000000e+00  8.9081015050438939e-01 -8.4726284494797688e-03 0.0000000000000000e+00  -6.8439416976490870e-06 -9.3236010387829353e-09 0.0000000000000000e+00  -7.0464696261911084e-06 2.5451663167559175e-08 0.0000000000000000e+00  -4.0286830557052330e-06 5.0001093228357348e-08 0.0000000000000000e+00  -5.8686075713469562e-06 -2.8505916966460193e-08 0.0000000000000000e+00  -2.9746648827915514e-06 -3.2775959749457821e-08 0.0000000000000000e+00  -7.4069083672379635e-06 -1.6909845048413046e-07 0.0000000000000000e+00  -8.3689443351654205e-06 -1.0595075169883653e-07 0.0000000000000000e+00  1.3516400740680417e-06 7.1045010268442669e-08 0.0000000000000000e+00  -1.1419418962233718e-05 -1.8100230043716105e-08 0.0000000000000000e+00  </DataArray> 
</PointData> 
</Piece>
</UnstructuredGrid>
</VTKFile>