<?xml version="1.0"?>
<VTKFile type="UnstructuredGrid"  version="0.1"  >
<UnstructuredGrid>
<Piece  NumberOfPoints="81" NumberOfCells="128">
<Points>
<DataArray  type="Float64"  NumberOfComponents="3"  format="ascii">0 0 0  0.275 0 0  0.55 0 0  0.8250000000000001 0 0  1.1 0 0  1.375 0 0  1.65 0 0  1.925 0 0  2.2 0 0  0 0.05125 0  0.275 0.05125 0  0.55 0.05125 0  0.8250000000000001 0.05125 0  1.1 0.05125 0  1.375 0.05125 0  1.65 0.05125 0  1.925 0.05125 0  2.2 0.05125 0  0 0.1025 0  0.275 0.1025 0  0.55 0.1025 0  0.8250000000000001 0.1025 0  1.1 0.1025 0  1.375 0.1025 0  1.65 0.1025 0  1.925 0.1025 0  2.2 0.1025 0  0 0.15375 0  0.275 0.15375 0  0.55 0.15375 0  0.8250000000000001 0.15375 0  1.1 0.15375 0  1.375 0.15375 0  1.65 0.15375 0  1.925 0.15375 0  2.2 0.15375 0  0 0.205 0  0.275 0.205 0  0.55 0.205 0  0.8250000000000001 0.205 0  1.1 0.205 0  1.375 0.205 0  1.65 0.205 0  1.925 0.205 0  2.2 0.205 0  0 0.25625 0  0.275 0.25625 0  0.55 0.25625 0  0.8250000000000001 0.25625 0  1.1 0.25625 0  1.375 0.25625 0  1.65 0.25625 0  1.925 0.25625 0  2.2 0.25625 0  0 0.3075 0  0.275 0.3075 0  0.55 0.3075 0  0.8250000000000001 0.3075 0  1.1 0.3075 0  1.375 0.3075 0  1.65 0.3075 0  1.925 0.3075 0  2.2 0.3075 0  0 0.35875 0  0.275 0.35875 0  0.55 0.35875 0  0.8250000000000001 0.35875 0  1.1 0.35875 0  1.375 0.35875 0  1.65 0.35875 0  1.925 0.35875 0  2.2 0.35875 0  0 0.41 0  0.275 0.41 0  0.55 0.41 0  0.8250000000000001 0.41 0  1.1 0.41 0  1.375 0.41 0  1.65 0.41 0  1.925 0.41 0  2.2 0.41 0  </DataArray>
</Points>
<Cells>
<DataArray  type="UInt32"  Name="connectivity"  format="ascii">0 1 9  1 9 10  1 2 11  1 10 11  2 3 11  3 11 12  3 4 13  3 12 13  4 5 13  5 13 14  5 6 15  5 14 15  6 7 15  7 15 16  7 8 17  7 16 17  9 10 19  9 18 19  10 11 19  11 19 20  11 12 21  11 20 21  12 13 21  13 21 22  13 14 23  13 22 23  14 15 23  15 23 24  15 16 25  15 24 25  16 17 25  17 25 26  18 19 27  19 27 28  19 20 29  19 28 29  20 21 29  21 29 30  21 22 31  21 30 31  22 23 31  23 31 32  23 24 33  23 32 33  24 25 33  25 33 34  25 26 35  25 34 35  27 28 37  27 36 37  28 29 37  29 37 38  29 30 39  29 38 39  30 31 39  31 39 40  31 32 41  31 40 41  32 33 41  33 41 42  33 34 43  33 42 43  34 35 43  35 43 44  36 37 45  37 45 46  37 38 47  37 46 47  38 39 47  39 47 48  39 40 49  39 48 49  40 41 49  41 49 50  41 42 51  41 50 51  42 43 51  43 51 52  43 44 53  43 52 53  45 46 55  45 54 55  46 47 55  47 55 56  47 48 57  47 56 57  48 49 57  49 57 58  49 50 59  49 58 59  50 51 59  51 59 60  51 52 61  51 60 61  52 53 61  53 61 62  54 55 63  55 63 64  55 56 65  55 64 65  56 57 65  57 65 66  57 58 67  57 66 67  58 59 67  59 67 68  59 60 69  59 68 69  60 61 69  61 69 70  61 62 71  61 70 71  63 64 73  63 72 73  64 65 73  65 73 74  65 66 75  65 74 75  66 67 75  67 75 76  67 68 77  67 76 77  68 69 77  69 77 78  69 70 79  69 78 79  70 71 79  71 79 80  </DataArray>
<DataArray  type="UInt32"  Name="offsets"  format="ascii">3 6 9 12 15 18 21 24 27 30 33 36 39 42 45 48 51 54 57 60 63 66 69 72 75 78 81 84 87 90 93 96 99 102 105 108 111 114 117 120 123 126 129 132 135 138 141 144 147 150 153 156 159 162 165 168 171 174 177 180 183 186 189 192 195 198 201 204 207 210 213 216 219 222 225 228 231 234 237 240 243 246 249 252 255 258 261 264 267 270 273 276 279 282 285 288 291 294 297 300 303 306 309 312 315 318 321 324 327 330 333 336 339 342 345 348 351 354 357 360 363 366 369 372 375 378 381 384 </DataArray>
<DataArray  type="UInt8"  Name="types"  format="ascii">5 5 5 5 5 5 5 5 5 5 5 5 5 5 5 5 5 5 5 5 5 5 5 5 5 5 5 5 5 5 5 5 5 5 5 5 5 5 5 5 5 5 5 5 5 5 5 5 5 5 5 5 5 5 5 5 5 5 5 5 5 5 5 5 5 5 5 5 5 5 5 5 5 5 5 5 5 5 5 5 5 5 5 5 5 5 5 5 5 5 5 5 5 5 5 5 5 5 5 5 5 5 5 5 5 5 5 5 5 5 5 5 5 5 5 5 5 5 5 5 5 5 5 5 5 5 5 5 </DataArray>
</Cells>
<PointData  Vectors="f_16"> 
<DataArray  type="Float64"  Name="f_16"  NumberOfComponents="3" format="ascii">2.0491591702216247e-05 -4.6409074936214501e-09 0.0000000000000000e+00  -1.2014304833318531e-06 1.0252547353941956e-10 0.0000000000000000e+00  1.0413328937687776e-06 -7.1244988287271114e-10 0.0000000000000000e+00  -8.2926264010406495e-06 4.5459457903732556e-10 0.0000000000000000e+00  -2.9369196812595638e-06 -1.0127218005171442e-10 0.0000000000000000e+00  -4.7740567485823893e-06 -1.9677772346260766e-10 0.0000000000000000e+00  -5.1876442944996436e-06 -4.5941421537756559e-10 0.0000000000000000e+00  -5.9187804987936412e-06 -1.2193763672336815e-09 0.0000000000000000e+00  -1.2287573163585562e-06 2.9954367257665195e-11 0.0000000000000000e+00  6.5624702284885261e-01 -7.0952873900616917e-10 0.0000000000000000e+00  6.5719346117408517e-01 -1.2549685073845392e-04 0.0000000000000000e+00  6.5843055780001225e-01 1.2943179611767959e-04 0.0000000000000000e+00  6.5827924840276664e-01 -2.8599706961440122e-05 0.0000000000000000e+00  6.5893633226864390e-01 -1.7598109181284097e-05 0.0000000000000000e+00  6.5869483409147411e-01 2.5328233305402038e-05 0.0000000000000000e+00  6.5846845636021145e-01 2.4348849888934494e-06 0.0000000000000000e+00  6.5731392301803560e-01 1.9894797903372375e-05 0.0000000000000000e+00  6.5755087506340115e-01 -1.2377499504767094e-04 0.0000000000000000e+00  1.1249841026945087e+00 9.9424733394247727e-10 0.0000000000000000e+00  1.1256469480562166e+00 -6.2991226710121869e-04 0.0000000000000000e+00  1.1239118657715470e+00 -1.6801133452831811e-04 0.0000000000000000e+00  1.1266150353281734e+00 -1.1830220604018725e-04 0.0000000000000000e+00  1.1256211196408727e+00 2.1141769808256213e-05 0.0000000000000000e+00  1.1253165321626055e+00 1.3115646734629041e-04 0.0000000000000000e+00  1.1251896158096217e+00 1.7492057328391197e-04 0.0000000000000000e+00  1.1245934850335315e+00 2.2911241661056797e-04 0.0000000000000000e+00  1.1240340209339781e+00 6.9747277218576702e-05 0.0000000000000000e+00  1.4062394809072536e+00 4.8477982753493026e-11 0.0000000000000000e+00  1.4056068821954162e+00 -1.8013093642239790e-04 0.0000000000000000e+00  1.4069606961802292e+00 -1.4845538170496654e-04 0.0000000000000000e+00  1.4046858815744374e+00 -1.5121326803024010e-04 0.0000000000000000e+00  1.4070314608425076e+00 -1.7588751228404765e-04 0.0000000000000000e+00  1.4060176420263990e+00 6.6293890847423021e-05 0.0000000000000000e+00  1.4059013140725096e+00 2.1048436261136207e-04 0.0000000000000000e+00  1.4056756679304816e+00 2.6174634002416956e-04 0.0000000000000000e+00  1.4054211591492183e+00 5.8538593204910853e-05 0.0000000000000000e+00  1.4999818447990478e+00 8.3720100883799313e-10 0.0000000000000000e+00  1.5001520440572420e+00 -1.5675333858954692e-04 0.0000000000000000e+00  1.4989963213762936e+00 -1.8249841081375651e-04 0.0000000000000000e+00  1.4994616392764464e+00 -1.2228542125513288e-04 0.0000000000000000e+00  1.4970949046729876e+00 -5.6442806817026864e-05 0.0000000000000000e+00  1.4992779774366667e+00 9.5332074386625753e-05 0.0000000000000000e+00  1.4986818817825656e+00 2.9575260583870666e-04 0.0000000000000000e+00  1.4981851387698049e+00 4.7250883564324629e-04 0.0000000000000000e+00  1.4980965695317452e+00 3.4984014841567273e-04 0.0000000000000000e+00  1.4062361163211616e+00 4.5699871688294839e-10 0.0000000000000000e+00  1.4055146875079729e+00 -3.7818920967481059e-05 0.0000000000000000e+00  1.4060541224023884e+00 -2.3502511649356060e-04 0.0000000000000000e+00  1.4049243024559868e+00 -1.1573366837943124e-04 0.0000000000000000e+00  1.4063171855226368e+00 7.3332053014156767e-05 0.0000000000000000e+00  1.4036238277922779e+00 1.0966607820360878e-04 0.0000000000000000e+00  1.4068509346375289e+00 1.8371906874162632e-04 0.0000000000000000e+00  1.4053093501814637e+00 3.2404921721097699e-04 0.0000000000000000e+00  1.4050400864973089e+00 4.3559555162083391e-04 0.0000000000000000e+00  1.1249860163119831e+00 -1.3236957460401277e-10 0.0000000000000000e+00  1.1253757658599530e+00 2.0130776611055254e-04 0.0000000000000000e+00  1.1249235861833939e+00 -6.0001068855629101e-05 0.0000000000000000e+00  1.1246469987155105e+00 -8.3074004866118682e-05 0.0000000000000000e+00  1.1240839189821816e+00 -2.4658799509963923e-05 0.0000000000000000e+00  1.1249133854202369e+00 5.3846531001344578e-05 0.0000000000000000e+00  1.1226978330478263e+00 2.0196523985126894e-04 0.0000000000000000e+00  1.1251898622305503e+00 4.3015818523547424e-04 0.0000000000000000e+00  1.1241619749478129e+00 5.9512845143601086e-04 0.0000000000000000e+00  6.5624143980529015e-01 3.0718422533488991e-11 0.0000000000000000e+00  6.5594810280757865e-01 2.0161208926837635e-05 0.0000000000000000e+00  6.5660061261767821e-01 -1.9996339047105932e-04 0.0000000000000000e+00  6.5628065361801224e-01 -2.3293103017487575e-05 0.0000000000000000e+00  6.5684716559609135e-01 -1.8997143058724868e-05 0.0000000000000000e+00  6.5585324090564157e-01 5.3738057726895265e-05 0.0000000000000000e+00  6.5812699730014101e-01 2.2461893086437240e-04 0.0000000000000000e+00  6.5572855918509887e-01 1.8543047078641877e-04 0.0000000000000000e+00  6.6005441890078842e-01 6.4735989469662789e-04 0.0000000000000000e+00  -7.0268572334503731e-06 -6.2724820742010987e-10 0.0000000000000000e+00  -7.2268037931458113e-06 -6.0463600173555475e-10 0.0000000000000000e+00  -4.6050838063296323e-06 -3.2846975320277393e-10 0.0000000000000000e+00  -6.2741035246053993e-06 1.2111116847847818e-09 0.0000000000000000e+00  -2.2712174932772299e-06 1.0684919821237999e-09 0.0000000000000000e+00  -6.9287860145577347e-06 -2.0672655082132991e-09 0.0000000000000000e+00  -7.0909179787902741e-06 -2.1427654307372186e-10 0.0000000000000000e+00  4.8132743503617873e-07 1.4175102217035745e-09 0.0000000000000000e+00  -1.0276515845562837e-05 -4.5102675706151106e-09 0.0000000000000000e+00  </DataArray> 
</PointData> 
</Piece>
</UnstructuredGrid>
</VTKFile>