<?xml version="1.0"?>
<VTKFile type="UnstructuredGrid"  version="0.1"  >
<UnstructuredGrid>
<Piece  NumberOfPoints="81" NumberOfCells="128">
<Points>
<DataArray  type="Float64"  NumberOfComponents="3"  format="ascii">0 0 0  0.275 0 0  0.55 0 0  0.8250000000000001 0 0  1.1 0 0  1.375 0 0  1.65 0 0  1.925 0 0  2.2 0 0  0 0.05125 0  0.275 0.05125 0  0.55 0.05125 0  0.8250000000000001 0.05125 0  1.1 0.05125 0  1.375 0.05125 0  1.65 0.05125 0  1.925 0.05125 0  2.2 0.05125 0  0 0.1025 0  0.275 0.1025 0  0.55 0.1025 0  0.8250000000000001 0.1025 0  1.1 0.1025 0  1.375 0.1025 0  1.65 0.1025 0  1.925 0.1025 0  2.2 0.1025 0  0 0.15375 0  0.275 0.15375 0  0.55 0.15375 0  0.8250000000000001 0.15375 0  1.1 0.15375 0  1.375 0.15375 0  1.65 0.15375 0  1.925 0.15375 0  2.2 0.15375 0  0 0.205 0  0.275 0.205 0  0.55 0.205 0  0.8250000000000001 0.205 0  1.1 0.205 0  1.375 0.205 0  1.65 0.205 0  1.925 0.205 0  2.2 0.205 0  0 0.25625 0  0.275 0.25625 0  0.55 0.25625 0  0.8250000000000001 0.25625 0  1.1 0.25625 0  1.375 0.25625 0  1.65 0.25625 0  1.925 0.25625 0  2.2 0.25625 0  0 0.3075 0  0.275 0.3075 0  0.55 0.3075 0  0.8250000000000001 0.3075 0  1.1 0.3075 0  1.375 0.3075 0  1.65 0.3075 0  1.925 0.3075 0  2.2 0.3075 0  0 0.35875 0  0.275 0.35875 0  0.55 0.35875 0  0.8250000000000001 0.35875 0  1.1 0.35875 0  1.375 0.35875 0  1.65 0.35875 0  1.925 0.35875 0  2.2 0.35875 0  0 0.41 0  0.275 0.41 0  0.55 0.41 0  0.8250000000000001 0.41 0  1.1 0.41 0  1.375 0.41 0  1.65 0.41 0  1.925 0.41 0  2.2 0.41 0  </DataArray>
</Points>
<Cells>
<DataArray  type="UInt32"  Name="connectivity"  format="ascii">0 1 9  1 9 10  1 2 11  1 10 11  2 3 11  3 11 12  3 4 13  3 12 13  4 5 13  5 13 14  5 6 15  5 14 15  6 7 15  7 15 16  7 8 17  7 16 17  9 10 19  9 18 19  10 11 19  11 19 20  11 12 21  11 20 21  12 13 21  13 21 22  13 14 23  13 22 23  14 15 23  15 23 24  15 16 25  15 24 25  16 17 25  17 25 26  18 19 27  19 27 28  19 20 29  19 28 29  20 21 29  21 29 30  21 22 31  21 30 31  22 23 31  23 31 32  23 24 33  23 32 33  24 25 33  25 33 34  25 26 35  25 34 35  27 28 37  27 36 37  28 29 37  29 37 38  29 30 39  29 38 39  30 31 39  31 39 40  31 32 41  31 40 41  32 33 41  33 41 42  33 34 43  33 42 43  34 35 43  35 43 44  36 37 45  37 45 46  37 38 47  37 46 47  38 39 47  39 47 48  39 40 49  39 48 49  40 41 49  41 49 50  41 42 51  41 50 51  42 43 51  43 51 52  43 44 53  43 52 53  45 46 55  45 54 55  46 47 55  47 55 56  47 48 57  47 56 57  48 49 57  49 57 58  49 50 59  49 58 59  50 51 59  51 59 60  51 52 61  51 60 61  52 53 61  53 61 62  54 55 63  55 63 64  55 56 65  55 64 65  56 57 65  57 65 66  57 58 67  57 66 67  58 59 67  59 67 68  59 60 69  59 68 69  60 61 69  61 69 70  61 62 71  61 70 71  63 64 73  63 72 73  64 65 73  65 73 74  65 66 75  65 74 75  66 67 75  67 75 76  67 68 77  67 76 77  68 69 77  69 77 78  69 70 79  69 78 79  70 71 79  71 79 80  </DataArray>
<DataArray  type="UInt32"  Name="offsets"  format="ascii">3 6 9 12 15 18 21 24 27 30 33 36 39 42 45 48 51 54 57 60 63 66 69 72 75 78 81 84 87 90 93 96 99 102 105 108 111 114 117 120 123 126 129 132 135 138 141 144 147 150 153 156 159 162 165 168 171 174 177 180 183 186 189 192 195 198 201 204 207 210 213 216 219 222 225 228 231 234 237 240 243 246 249 252 255 258 261 264 267 270 273 276 279 282 285 288 291 294 297 300 303 306 309 312 315 318 321 324 327 330 333 336 339 342 345 348 351 354 357 360 363 366 369 372 375 378 381 384 </DataArray>
<DataArray  type="UInt8"  Name="types"  format="ascii">5 5 5 5 5 5 5 5 5 5 5 5 5 5 5 5 5 5 5 5 5 5 5 5 5 5 5 5 5 5 5 5 5 5 5 5 5 5 5 5 5 5 5 5 5 5 5 5 5 5 5 5 5 5 5 5 5 5 5 5 5 5 5 5 5 5 5 5 5 5 5 5 5 5 5 5 5 5 5 5 5 5 5 5 5 5 5 5 5 5 5 5 5 5 5 5 5 5 5 5 5 5 5 5 5 5 5 5 5 5 5 5 5 5 5 5 5 5 5 5 5 5 5 5 5 5 5 5 </DataArray>
</Cells>
<PointData  Vectors="f_16"> 
<DataArray  type="Float64"  Name="f_16"  NumberOfComponents="3" format="ascii">2.0489156594270520e-05 -4.3584863431744956e-09 0.0000000000000000e+00  -1.2012766901519496e-06 -4.4617673498035144e-11 0.0000000000000000e+00  1.0443174074856203e-06 -1.0078585573867833e-09 0.0000000000000000e+00  -8.2928398864556475e-06 1.0946254675160811e-09 0.0000000000000000e+00  -2.9412648544422769e-06 4.1869175989838321e-11 0.0000000000000000e+00  -4.7734328972184465e-06 -1.0007289761711568e-09 0.0000000000000000e+00  -5.1837132439497483e-06 -3.9709437869650976e-10 0.0000000000000000e+00  -5.9226408089114359e-06 -3.2767453948095262e-10 0.0000000000000000e+00  -1.2411785643271102e-06 2.2579452005132431e-10 0.0000000000000000e+00  6.5624702179334105e-01 -1.8384987739660298e-10 0.0000000000000000e+00  6.5713295948314565e-01 -1.2914040429946858e-04 0.0000000000000000e+00  6.5836029722532596e-01 1.3631883981186127e-04 0.0000000000000000e+00  6.5821147934784152e-01 -3.2890318260789113e-05 0.0000000000000000e+00  6.5875186502599548e-01 -2.0361950525896800e-05 0.0000000000000000e+00  6.5863165438665083e-01 3.5941071174986451e-05 0.0000000000000000e+00  6.5834160144882492e-01 5.2013863852241782e-06 0.0000000000000000e+00  6.5749028614928828e-01 2.3986056857969488e-05 0.0000000000000000e+00  6.5747572539777732e-01 -3.4841007343756565e-05 0.0000000000000000e+00  1.1249841003447894e+00 9.5845039912830638e-10 0.0000000000000000e+00  1.1255512309451783e+00 -6.1871885003833538e-04 0.0000000000000000e+00  1.1238722104841088e+00 -1.5052811278919894e-04 0.0000000000000000e+00  1.1264580600437200e+00 -1.3915773009380905e-04 0.0000000000000000e+00  1.1256179520959964e+00 7.3062826310802784e-06 0.0000000000000000e+00  1.1252727850038131e+00 1.8719032897899655e-04 0.0000000000000000e+00  1.1251805238037316e+00 1.5300288273007223e-04 0.0000000000000000e+00  1.1246200150839460e+00 2.0258177100012666e-04 0.0000000000000000e+00  1.1241422748888568e+00 1.5316709419511479e-04 0.0000000000000000e+00  1.4062394798552755e+00 -1.4731141645748790e-10 0.0000000000000000e+00  1.4055759403848651e+00 -1.5710789900793282e-04 0.0000000000000000e+00  1.4068073315143976e+00 -1.4440098917418729e-04 0.0000000000000000e+00  1.4047360181123485e+00 -1.9270267896127148e-04 0.0000000000000000e+00  1.4072594909190939e+00 -1.7769027790837019e-04 0.0000000000000000e+00  1.4061008180010708e+00 1.1238497837655017e-04 0.0000000000000000e+00  1.4057181412648914e+00 1.6100994102094261e-04 0.0000000000000000e+00  1.4056415026625984e+00 2.0976052351446027e-04 0.0000000000000000e+00  1.4055336153534661e+00 1.3834278018657291e-04 0.0000000000000000e+00  1.4999818411990651e+00 8.8942335040102858e-10 0.0000000000000000e+00  1.5000529776693754e+00 -1.5715521626859984e-04 0.0000000000000000e+00  1.4988607164887611e+00 -1.8296055065428530e-04 0.0000000000000000e+00  1.4996237754546362e+00 -1.2578665583259157e-04 0.0000000000000000e+00  1.4974113119067076e+00 -6.4351133443665305e-05 0.0000000000000000e+00  1.4992925745715382e+00 8.6800509471715028e-05 0.0000000000000000e+00  1.4984686108526313e+00 2.8821708371320044e-04 0.0000000000000000e+00  1.4981328048584999e+00 4.6546098632577746e-04 0.0000000000000000e+00  1.4981418831538058e+00 3.5033892748852349e-04 0.0000000000000000e+00  1.4062361150560307e+00 7.0873748071684270e-10 0.0000000000000000e+00  1.4054835355892383e+00 -6.1416809785060672e-05 0.0000000000000000e+00  1.4059056429966861e+00 -2.3808939437145891e-04 0.0000000000000000e+00  1.4049667307005380e+00 -8.0393099829286670e-05 0.0000000000000000e+00  1.4065257066261792e+00 6.1327327521368334e-05 0.0000000000000000e+00  1.4036769177242463e+00 4.7315080100231830e-05 0.0000000000000000e+00  1.4066184545354448e+00 2.1509488985726547e-04 0.0000000000000000e+00  1.4051971032201847e+00 3.6627434796207586e-04 0.0000000000000000e+00  1.4050659704323825e+00 3.6329709920087159e-04 0.0000000000000000e+00  1.1249860137444541e+00 -2.2119306872478325e-11 0.0000000000000000e+00  1.1252819213952465e+00 1.8944621007473030e-04 0.0000000000000000e+00  1.1248807058335071e+00 -7.8670428750423542e-05 0.0000000000000000e+00  1.1244852329474813e+00 -6.5543319331927362e-05 0.0000000000000000e+00  1.1240509059674526e+00 -1.9031283888013955e-05 0.0000000000000000e+00  1.1248121069393153e+00 -1.3221101656391837e-05 0.0000000000000000e+00  1.1225872958431344e+00 2.1319150042643724e-04 0.0000000000000000e+00  1.1250786924819807e+00 4.5180783643354816e-04 0.0000000000000000e+00  1.1241137072459730e+00 5.1708584602854217e-04 0.0000000000000000e+00  6.5624143916493138e-01 -4.2481472149881000e-10 0.0000000000000000e+00  6.5588792745314173e-01 2.3409978160748023e-05 0.0000000000000000e+00  6.5652771757705475e-01 -2.0706471243250819e-04 0.0000000000000000e+00  6.5620054501651359e-01 -2.0078954928366040e-05 0.0000000000000000e+00  6.5663462412236362e-01 -1.9355691412164051e-05 0.0000000000000000e+00  6.5572681550248579e-01 3.9637341310478178e-05 0.0000000000000000e+00  6.5789891130191280e-01 2.1883626231088423e-04 0.0000000000000000e+00  6.5577456327103034e-01 1.8081871212998347e-04 0.0000000000000000e+00  6.5986762573036728e-01 5.6628412383421623e-04 0.0000000000000000e+00  -7.0288818520990567e-06 -8.9142146089733607e-10 0.0000000000000000e+00  -7.2265500874452516e-06 -4.7148690637040538e-10 0.0000000000000000e+00  -4.6023709862290493e-06 -1.9691847962656360e-10 0.0000000000000000e+00  -6.2742652707983351e-06 6.9119126872325690e-10 0.0000000000000000e+00  -2.2764036267719250e-06 1.1001418387940824e-09 0.0000000000000000e+00  -6.9281538410192723e-06 -1.2003724402171576e-09 0.0000000000000000e+00  -7.0859200245614388e-06 -4.6307979573471819e-10 0.0000000000000000e+00  4.7795265460594535e-07 1.7470933290028553e-10 0.0000000000000000e+00  -1.0285919489179550e-05 -4.6139766200709544e-09 0.0000000000000000e+00  </DataArray> 
</PointData> 
</Piece>
</UnstructuredGrid>
</VTKFile>