<?xml version="1.0"?>
<VTKFile type="UnstructuredGrid"  version="0.1"  >
<UnstructuredGrid>
<Piece  NumberOfPoints="81" NumberOfCells="128">
<Points>
<DataArray  type="Float64"  NumberOfComponents="3"  format="ascii">0 0 0  0.275 0 0  0.55 0 0  0.8250000000000001 0 0  1.1 0 0  1.375 0 0  1.65 0 0  1.925 0 0  2.2 0 0  0 0.05125 0  0.275 0.05125 0  0.55 0.05125 0  0.8250000000000001 0.05125 0  1.1 0.05125 0  1.375 0.05125 0  1.65 0.05125 0  1.925 0.05125 0  2.2 0.05125 0  0 0.1025 0  0.275 0.1025 0  0.55 0.1025 0  0.8250000000000001 0.1025 0  1.1 0.1025 0  1.375 0.1025 0  1.65 0.1025 0  1.925 0.1025 0  2.2 0.1025 0  0 0.15375 0  0.275 0.15375 0  0.55 0.15375 0  0.8250000000000001 0.15375 0  1.1 0.15375 0  1.375 0.15375 0  1.65 0.15375 0  1.925 0.15375 0  2.2 0.15375 0  0 0.205 0  0.275 0.205 0  0.55 0.205 0  0.8250000000000001 0.205 0  1.1 0.205 0  1.375 0.205 0  1.65 0.205 0  1.925 0.205 0  2.2 0.205 0  0 0.25625 0  0.275 0.25625 0  0.55 0.25625 0  0.8250000000000001 0.25625 0  1.1 0.25625 0  1.375 0.25625 0  1.65 0.25625 0  1.925 0.25625 0  2.2 0.25625 0  0 0.3075 0  0.275 0.3075 0  0.55 0.3075 0  0.8250000000000001 0.3075 0  1.1 0.3075 0  1.375 0.3075 0  1.65 0.3075 0  1.925 0.3075 0  2.2 0.3075 0  0 0.35875 0  0.275 0.35875 0  0.55 0.35875 0  0.8250000000000001 0.35875 0  1.1 0.35875 0  1.375 0.35875 0  1.65 0.35875 0  1.925 0.35875 0  2.2 0.35875 0  0 0.41 0  0.275 0.41 0  0.55 0.41 0  0.8250000000000001 0.41 0  1.1 0.41 0  1.375 0.41 0  1.65 0.41 0  1.925 0.41 0  2.2 0.41 0  </DataArray>
</Points>
<Cells>
<DataArray  type="UInt32"  Name="connectivity"  format="ascii">0 1 9  1 9 10  1 2 11  1 10 11  2 3 11  3 11 12  3 4 13  3 12 13  4 5 13  5 13 14  5 6 15  5 14 15  6 7 15  7 15 16  7 8 17  7 16 17  9 10 19  9 18 19  10 11 19  11 19 20  11 12 21  11 20 21  12 13 21  13 21 22  13 14 23  13 22 23  14 15 23  15 23 24  15 16 25  15 24 25  16 17 25  17 25 26  18 19 27  19 27 28  19 20 29  19 28 29  20 21 29  21 29 30  21 22 31  21 30 31  22 23 31  23 31 32  23 24 33  23 32 33  24 25 33  25 33 34  25 26 35  25 34 35  27 28 37  27 36 37  28 29 37  29 37 38  29 30 39  29 38 39  30 31 39  31 39 40  31 32 41  31 40 41  32 33 41  33 41 42  33 34 43  33 42 43  34 35 43  35 43 44  36 37 45  37 45 46  37 38 47  37 46 47  38 39 47  39 47 48  39 40 49  39 48 49  40 41 49  41 49 50  41 42 51  41 50 51  42 43 51  43 51 52  43 44 53  43 52 53  45 46 55  45 54 55  46 47 55  47 55 56  47 48 57  47 56 57  48 49 57  49 57 58  49 50 59  49 58 59  50 51 59  51 59 60  51 52 61  51 60 61  52 53 61  53 61 62  54 55 63  55 63 64  55 56 65  55 64 65  56 57 65  57 65 66  57 58 67  57 66 67  58 59 67  59 67 68  59 60 69  59 68 69  60 61 69  61 69 70  61 62 71  61 70 71  63 64 73  63 72 73  64 65 73  65 73 74  65 66 75  65 74 75  66 67 75  67 75 76  67 68 77  67 76 77  68 69 77  69 77 78  69 70 79  69 78 79  70 71 79  71 79 80  </DataArray>
<DataArray  type="UInt32"  Name="offsets"  format="ascii">3 6 9 12 15 18 21 24 27 30 33 36 39 42 45 48 51 54 57 60 63 66 69 72 75 78 81 84 87 90 93 96 99 102 105 108 111 114 117 120 123 126 129 132 135 138 141 144 147 150 153 156 159 162 165 168 171 174 177 180 183 186 189 192 195 198 201 204 207 210 213 216 219 222 225 228 231 234 237 240 243 246 249 252 255 258 261 264 267 270 273 276 279 282 285 288 291 294 297 300 303 306 309 312 315 318 321 324 327 330 333 336 339 342 345 348 351 354 357 360 363 366 369 372 375 378 381 384 </DataArray>
<DataArray  type="UInt8"  Name="types"  format="ascii">5 5 5 5 5 5 5 5 5 5 5 5 5 5 5 5 5 5 5 5 5 5 5 5 5 5 5 5 5 5 5 5 5 5 5 5 5 5 5 5 5 5 5 5 5 5 5 5 5 5 5 5 5 5 5 5 5 5 5 5 5 5 5 5 5 5 5 5 5 5 5 5 5 5 5 5 5 5 5 5 5 5 5 5 5 5 5 5 5 5 5 5 5 5 5 5 5 5 5 5 5 5 5 5 5 5 5 5 5 5 5 5 5 5 5 5 5 5 5 5 5 5 5 5 5 5 5 5 </DataArray>
</Cells>
<PointData  Vectors="f_16"> 
<DataArray  type="Float64"  Name="f_16"  NumberOfComponents="3" format="ascii">2.6115947845938581e-05 -2.3597271099600532e-07 0.0000000000000000e+00  -3.0144164991665512e-07 -2.6073379793277628e-07 0.0000000000000000e+00  -8.0243416390090920e-07 3.8801676900885021e-07 0.0000000000000000e+00  -8.1506733082328221e-06 1.8598546079874022e-07 0.0000000000000000e+00  -6.3390355295343535e-06 3.8537980475594684e-07 0.0000000000000000e+00  -5.9116549417398066e-06 -1.3666959297624104e-07 0.0000000000000000e+00  -9.5787290686377153e-06 5.1122801954245176e-08 0.0000000000000000e+00  -7.1342878936280076e-06 -2.0737373901668927e-07 0.0000000000000000e+00  -5.3965106689562088e-06 -5.1394597205849956e-08 0.0000000000000000e+00  6.5624879276187320e-01 -1.3720209446448636e-07 0.0000000000000000e+00  7.3058988008017867e-01 -5.9163614632473917e-02 0.0000000000000000e+00  9.9049656142029352e-01 1.7637394887970205e-02 0.0000000000000000e+00  1.0408018741019065e+00 -1.6705550903179600e-02 0.0000000000000000e+00  1.0809891368964726e+00 1.7710899665230841e-02 0.0000000000000000e+00  1.0407096196052565e+00 -1.0060850691376667e-02 0.0000000000000000e+00  1.0719755160125690e+00 1.2517781493376047e-02 0.0000000000000000e+00  1.0476385437005478e+00 -6.3446736298638203e-03 0.0000000000000000e+00  1.0673225677164786e+00 1.6468370938504773e-02 0.0000000000000000e+00  1.1249864512485781e+00 2.7884178699351236e-07 0.0000000000000000e+00  1.1079306827233346e+00 -6.8838610887506022e-02 0.0000000000000000e+00  1.0761864279667135e+00 -4.8894717660582517e-02 0.0000000000000000e+00  1.0573761464730014e+00 -1.4209226745564617e-02 0.0000000000000000e+00  1.1594890649651437e+00 9.3283839659472085e-03 0.0000000000000000e+00  1.0702668561275142e+00 -1.1840001587069935e-02 0.0000000000000000e+00  1.1357028726109704e+00 4.4541875125179093e-03 0.0000000000000000e+00  1.0846612885446163e+00 -1.0294242142734524e-02 0.0000000000000000e+00  1.1350357703857383e+00 8.9353698480311387e-03 0.0000000000000000e+00  1.4062405213383107e+00 5.9832978284577562e-07 0.0000000000000000e+00  1.3703943010579924e+00 -1.0928997111938333e-02 0.0000000000000000e+00  1.1133958234987855e+00 -3.5208718923776937e-02 0.0000000000000000e+00  1.0770648081939109e+00 6.2301255717072887e-04 0.0000000000000000e+00  1.1601753748650523e+00 6.5455521681803009e-03 0.0000000000000000e+00  1.0882270994928043e+00 -7.5267527045476997e-04 0.0000000000000000e+00  1.1329368795788310e+00 3.5648339395616554e-03 0.0000000000000000e+00  1.0995223334202360e+00 1.6723581699471765e-04 0.0000000000000000e+00  1.1377861781127088e+00 5.3350557389223782e-03 0.0000000000000000e+00  1.4999843418398049e+00 8.0995937649695687e-08 0.0000000000000000e+00  1.4861480998550605e+00 -1.5139657641813361e-04 0.0000000000000000e+00  1.1551986885913625e+00 -1.7887215870196179e-05 0.0000000000000000e+00  1.0694623858185384e+00 -1.2214971399560811e-05 0.0000000000000000e+00  1.1575654194526368e+00 1.6531158814408166e-05 0.0000000000000000e+00  1.0868862391499574e+00 8.6412839104872092e-05 0.0000000000000000e+00  1.1353389933835032e+00 1.4431586265593890e-04 0.0000000000000000e+00  1.0984292027525198e+00 -1.9398562744038983e-05 0.0000000000000000e+00  1.1364207842685505e+00 -1.0061569540099725e-04 0.0000000000000000e+00  1.4062380968814086e+00 -4.9081570555254218e-07 0.0000000000000000e+00  1.3704836244999004e+00 1.0836887650759576e-02 0.0000000000000000e+00  1.1120353866671393e+00 3.5181838802704472e-02 0.0000000000000000e+00  1.0779073255159142e+00 -7.4929739505320099e-04 0.0000000000000000e+00  1.1598887527274491e+00 -6.2973904590960025e-03 0.0000000000000000e+00  1.0866508009008176e+00 7.7565609425014003e-04 0.0000000000000000e+00  1.1354082220480788e+00 -3.3934515039991111e-03 0.0000000000000000e+00  1.0997241926934078e+00 -1.3503896098131558e-04 0.0000000000000000e+00  1.1369174566895421e+00 -5.6793413675710076e-03 0.0000000000000000e+00  1.1249883287656661e+00 -3.6403006913869439e-07 0.0000000000000000e+00  1.1076677821848062e+00 6.8616160562186126e-02 0.0000000000000000e+00  1.0778778574913306e+00 4.8931730386321308e-02 0.0000000000000000e+00  1.0559455876955328e+00 1.4132045129551208e-02 0.0000000000000000e+00  1.1591080191595560e+00 -9.2323963056362476e-03 0.0000000000000000e+00  1.0714939049604568e+00 1.1801507796004558e-02 0.0000000000000000e+00  1.1344446594137172e+00 -4.4217551685560071e-03 0.0000000000000000e+00  1.0863703575640549e+00 1.0438203126899677e-02 0.0000000000000000e+00  1.1342938125728719e+00 -8.8766728512609683e-03 0.0000000000000000e+00  6.5624292540488383e-01 -2.5556944236233506e-08 0.0000000000000000e+00  7.3009949337788449e-01 5.9157973072185954e-02 0.0000000000000000e+00  9.8942678834463960e-01 -1.7729871994065827e-02 0.0000000000000000e+00  1.0401135866273927e+00 1.6754476438912418e-02 0.0000000000000000e+00  1.0809064999165070e+00 -1.7758414784680380e-02 0.0000000000000000e+00  1.0400255716316589e+00 1.0061388227721815e-02 0.0000000000000000e+00  1.0723596244675404e+00 -1.2434821745840652e-02 0.0000000000000000e+00  1.0455433872592994e+00 6.3515644474560233e-03 0.0000000000000000e+00  1.0678734827821215e+00 -1.6187732925204572e-02 0.0000000000000000e+00  -5.3174579445513026e-06 -1.2396895088893683e-07 0.0000000000000000e+00  -6.3129121769547978e-06 2.9700707802833450e-07 0.0000000000000000e+00  -6.3943196996989355e-06 -7.7337663435703691e-07 0.0000000000000000e+00  -7.1206885796954780e-06 -3.4071989657903955e-07 0.0000000000000000e+00  -6.1957303151946928e-06 -4.1556006057307507e-07 0.0000000000000000e+00  -8.7537256549665669e-06 1.0510041040663893e-07 0.0000000000000000e+00  -1.1628632477335434e-05 -7.6568555628166995e-08 0.0000000000000000e+00  1.3714858986989371e-06 1.2263920141576531e-07 0.0000000000000000e+00  -1.0453474882308015e-05 7.8732312835397123e-08 0.0000000000000000e+00  </DataArray> 
</PointData> 
</Piece>
</UnstructuredGrid>
</VTKFile>