<?xml version="1.0"?>
<VTKFile type="UnstructuredGrid"  version="0.1"  >
<UnstructuredGrid>
<Piece  NumberOfPoints="81" NumberOfCells="128">
<Points>
<DataArray  type="Float64"  NumberOfComponents="3"  format="ascii">0 0 0  0.275 0 0  0.55 0 0  0.8250000000000001 0 0  1.1 0 0  1.375 0 0  1.65 0 0  1.925 0 0  2.2 0 0  0 0.05125 0  0.275 0.05125 0  0.55 0.05125 0  0.8250000000000001 0.05125 0  1.1 0.05125 0  1.375 0.05125 0  1.65 0.05125 0  1.925 0.05125 0  2.2 0.05125 0  0 0.1025 0  0.275 0.1025 0  0.55 0.1025 0  0.8250000000000001 0.1025 0  1.1 0.1025 0  1.375 0.1025 0  1.65 0.1025 0  1.925 0.1025 0  2.2 0.1025 0  0 0.15375 0  0.275 0.15375 0  0.55 0.15375 0  0.8250000000000001 0.15375 0  1.1 0.15375 0  1.375 0.15375 0  1.65 0.15375 0  1.925 0.15375 0  2.2 0.15375 0  0 0.205 0  0.275 0.205 0  0.55 0.205 0  0.8250000000000001 0.205 0  1.1 0.205 0  1.375 0.205 0  1.65 0.205 0  1.925 0.205 0  2.2 0.205 0  0 0.25625 0  0.275 0.25625 0  0.55 0.25625 0  0.8250000000000001 0.25625 0  1.1 0.25625 0  1.375 0.25625 0  1.65 0.25625 0  1.925 0.25625 0  2.2 0.25625 0  0 0.3075 0  0.275 0.3075 0  0.55 0.3075 0  0.8250000000000001 0.3075 0  1.1 0.3075 0  1.375 0.3075 0  1.65 0.3075 0  1.925 0.3075 0  2.2 0.3075 0  0 0.35875 0  0.275 0.35875 0  0.55 0.35875 0  0.8250000000000001 0.35875 0  1.1 0.35875 0  1.375 0.35875 0  1.65 0.35875 0  1.925 0.35875 0  2.2 0.35875 0  0 0.41 0  0.275 0.41 0  0.55 0.41 0  0.8250000000000001 0.41 0  1.1 0.41 0  1.375 0.41 0  1.65 0.41 0  1.925 0.41 0  2.2 0.41 0  </DataArray>
</Points>
<Cells>
<DataArray  type="UInt32"  Name="connectivity"  format="ascii">0 1 9  1 9 10  1 2 11  1 10 11  2 3 11  3 11 12  3 4 13  3 12 13  4 5 13  5 13 14  5 6 15  5 14 15  6 7 15  7 15 16  7 8 17  7 16 17  9 10 19  9 18 19  10 11 19  11 19 20  11 12 21  11 20 21  12 13 21  13 21 22  13 14 23  13 22 23  14 15 23  15 23 24  15 16 25  15 24 25  16 17 25  17 25 26  18 19 27  19 27 28  19 20 29  19 28 29  20 21 29  21 29 30  21 22 31  21 30 31  22 23 31  23 31 32  23 24 33  23 32 33  24 25 33  25 33 34  25 26 35  25 34 35  27 28 37  27 36 37  28 29 37  29 37 38  29 30 39  29 38 39  30 31 39  31 39 40  31 32 41  31 40 41  32 33 41  33 41 42  33 34 43  33 42 43  34 35 43  35 43 44  36 37 45  37 45 46  37 38 47  37 46 47  38 39 47  39 47 48  39 40 49  39 48 49  40 41 49  41 49 50  41 42 51  41 50 51  42 43 51  43 51 52  43 44 53  43 52 53  45 46 55  45 54 55  46 47 55  47 55 56  47 48 57  47 56 57  48 49 57  49 57 58  49 50 59  49 58 59  50 51 59  51 59 60  51 52 61  51 60 61  52 53 61  53 61 62  54 55 63  55 63 64  55 56 65  55 64 65  56 57 65  57 65 66  57 58 67  57 66 67  58 59 67  59 67 68  59 60 69  59 68 69  60 61 69  61 69 70  61 62 71  61 70 71  63 64 73  63 72 73  64 65 73  65 73 74  65 66 75  65 74 75  66 67 75  67 75 76  67 68 77  67 76 77  68 69 77  69 77 78  69 70 79  69 78 79  70 71 79  71 79 80  </DataArray>
<DataArray  type="UInt32"  Name="offsets"  format="ascii">3 6 9 12 15 18 21 24 27 30 33 36 39 42 45 48 51 54 57 60 63 66 69 72 75 78 81 84 87 90 93 96 99 102 105 108 111 114 117 120 123 126 129 132 135 138 141 144 147 150 153 156 159 162 165 168 171 174 177 180 183 186 189 192 195 198 201 204 207 210 213 216 219 222 225 228 231 234 237 240 243 246 249 252 255 258 261 264 267 270 273 276 279 282 285 288 291 294 297 300 303 306 309 312 315 318 321 324 327 330 333 336 339 342 345 348 351 354 357 360 363 366 369 372 375 378 381 384 </DataArray>
<DataArray  type="UInt8"  Name="types"  format="ascii">5 5 5 5 5 5 5 5 5 5 5 5 5 5 5 5 5 5 5 5 5 5 5 5 5 5 5 5 5 5 5 5 5 5 5 5 5 5 5 5 5 5 5 5 5 5 5 5 5 5 5 5 5 5 5 5 5 5 5 5 5 5 5 5 5 5 5 5 5 5 5 5 5 5 5 5 5 5 5 5 5 5 5 5 5 5 5 5 5 5 5 5 5 5 5 5 5 5 5 5 5 5 5 5 5 5 5 5 5 5 5 5 5 5 5 5 5 5 5 5 5 5 5 5 5 5 5 5 </DataArray>
</Cells>
<PointData  Vectors="f_16"> 
<DataArray  type="Float64"  Name="f_16"  NumberOfComponents="3" format="ascii">2.0488769253160243e-05 -4.0419103933340255e-09 0.0000000000000000e+00  -1.1998611214538181e-06 -3.1982140388442260e-10 0.0000000000000000e+00  1.0468393098072252e-06 -1.1467686769031213e-09 0.0000000000000000e+00  -8.2950338949943393e-06 1.5459415901054068e-09 0.0000000000000000e+00  -2.9464461342079882e-06 -6.8384887968766513e-10 0.0000000000000000e+00  -4.7712646281776444e-06 -2.6574536597191392e-10 0.0000000000000000e+00  -5.1836408383097091e-06 2.9337396306262924e-09 0.0000000000000000e+00  -5.9152771296889201e-06 4.8197393244304592e-09 0.0000000000000000e+00  -1.2109048548410372e-06 2.1247866816361543e-09 0.0000000000000000e+00  6.5624702269333468e-01 1.6792132031938282e-10 0.0000000000000000e+00  6.5714590978328835e-01 -1.2458276230384609e-04 0.0000000000000000e+00  6.5851768740783190e-01 1.3388687139087601e-04 0.0000000000000000e+00  6.5824446865812336e-01 -3.4445769004534787e-05 0.0000000000000000e+00  6.5897172381451419e-01 -5.3828560927161172e-05 0.0000000000000000e+00  6.5863831741151324e-01 8.7757439275424812e-05 0.0000000000000000e+00  6.5862100895695852e-01 -3.7288168866143771e-05 0.0000000000000000e+00  6.5817711217019281e-01 -5.7021000224483940e-05 0.0000000000000000e+00  6.6180019111085719e-01 -1.2561905413874200e-03 0.0000000000000000e+00  1.1249840995861433e+00 2.6204122612428410e-11 0.0000000000000000e+00  1.1256592861201524e+00 -6.2216245904480509e-04 0.0000000000000000e+00  1.1238747575581702e+00 -1.5782860645165047e-04 0.0000000000000000e+00  1.1266375140634448e+00 -1.9490785350704908e-04 0.0000000000000000e+00  1.1257441529589969e+00 2.4985984026617618e-05 0.0000000000000000e+00  1.1254012125267718e+00 3.5882243770904041e-04 0.0000000000000000e+00  1.1250271270457382e+00 7.0699588751045009e-05 0.0000000000000000e+00  1.1249235909651165e+00 9.8873187702249929e-05 0.0000000000000000e+00  1.1242038658501579e+00 -1.0825005386907083e-03 0.0000000000000000e+00  1.4062394812047116e+00 -1.3694400741220535e-09 0.0000000000000000e+00  1.4054761259028425e+00 -1.3749835646141155e-04 0.0000000000000000e+00  1.4067148258675024e+00 -1.6205335042107234e-04 0.0000000000000000e+00  1.4049173949470311e+00 -2.3425305567488001e-04 0.0000000000000000e+00  1.4073995220719440e+00 -9.6796666646793486e-05 0.0000000000000000e+00  1.4059053750590209e+00 2.0970960312344732e-04 0.0000000000000000e+00  1.4055247461024389e+00 6.5691416474440145e-05 0.0000000000000000e+00  1.4056979180270583e+00 6.0752940355627842e-05 0.0000000000000000e+00  1.4034918590133370e+00 -6.2211306423220016e-04 0.0000000000000000e+00  1.4999818389266777e+00 8.5253806325878326e-10 0.0000000000000000e+00  1.4998929498552360e+00 -1.5464684360344747e-04 0.0000000000000000e+00  1.4987582931722740e+00 -1.8085076344981810e-04 0.0000000000000000e+00  1.4999907482295411e+00 -1.2136194300628054e-04 0.0000000000000000e+00  1.4974300811523233e+00 -5.0821894870104057e-05 0.0000000000000000e+00  1.4989678819568826e+00 1.0828260901976144e-04 0.0000000000000000e+00  1.4983109010442870e+00 3.0246493138226050e-04 0.0000000000000000e+00  1.4982566212634749e+00 4.6516300304250163e-04 0.0000000000000000e+00  1.4955424938843256e+00 3.2380083144996396e-04 0.0000000000000000e+00  1.4062361162430739e+00 1.9368959736381796e-09 0.0000000000000000e+00  1.4053888519895175e+00 -7.7965800282587245e-05 0.0000000000000000e+00  1.4058142159176399e+00 -2.2022435241791672e-04 0.0000000000000000e+00  1.4051542594518602e+00 -2.8301324932775723e-05 0.0000000000000000e+00  1.4066980242026672e+00 5.6176438870771476e-06 0.0000000000000000e+00  1.4035593034805920e+00 -1.6236389139663677e-05 0.0000000000000000e+00  1.4065312133413934e+00 3.4372238713944347e-04 0.0000000000000000e+00  1.4053831441268723e+00 5.0617092411366083e-04 0.0000000000000000e+00  1.4031471169978798e+00 1.0444804101109120e-03 0.0000000000000000e+00  1.1249860121390263e+00 1.0982857374486571e-09 0.0000000000000000e+00  1.1253884831860301e+00 1.9470389736487084e-04 0.0000000000000000e+00  1.1248966874809105e+00 -6.7420302486551894e-05 0.0000000000000000e+00  1.1246844644452121e+00 -4.2744954280877283e-06 0.0000000000000000e+00  1.1242399629226081e+00 -2.1200308069520466e-05 0.0000000000000000e+00  1.1250719784879220e+00 -1.5931832029753289e-04 0.0000000000000000e+00  1.1226429562047877e+00 3.1035142199302640e-04 0.0000000000000000e+00  1.1256362090747112e+00 5.5131996279392747e-04 0.0000000000000000e+00  1.1243610668323063e+00 1.6922299769982943e-03 0.0000000000000000e+00  6.5624144039844112e-01 -7.2788045280498932e-10 0.0000000000000000e+00  6.5589887023491233e-01 1.9122087510610999e-05 0.0000000000000000e+00  6.5669154556442433e-01 -2.0388686489318346e-04 0.0000000000000000e+00  6.5626663482388647e-01 -1.5391662526853355e-05 0.0000000000000000e+00  6.5692071693516374e-01 1.8762603555685991e-05 0.0000000000000000e+00  6.5587657863935811e-01 -5.0526496419170806e-06 0.0000000000000000e+00  6.5838087202581796e-01 2.6492436633944455e-04 0.0000000000000000e+00  6.5667049474021777e-01 2.5612701777192850e-04 0.0000000000000000e+00  6.6421473117035079e-01 1.7443609826985995e-03 0.0000000000000000e+00  -7.0295183482211275e-06 -1.3728226163526669e-09 0.0000000000000000e+00  -7.2255933322954585e-06 -3.2792218194225072e-10 0.0000000000000000e+00  -4.6000601199392427e-06 -2.8385702800827657e-10 0.0000000000000000e+00  -6.2775807895821720e-06 1.0793565278047413e-10 0.0000000000000000e+00  -2.2818709682010054e-06 2.0704335313377931e-09 0.0000000000000000e+00  -6.9281927761593312e-06 -1.5903416674406706e-09 0.0000000000000000e+00  -7.0784946998485191e-06 -1.4508042123714535e-09 0.0000000000000000e+00  4.9130758663961708e-07 -9.4020514931457241e-12 0.0000000000000000e+00  -1.0262192538567600e-05 -9.5825913283656487e-09 0.0000000000000000e+00  </DataArray> 
</PointData> 
</Piece>
</UnstructuredGrid>
</VTKFile>