<?xml version="1.0"?>
<VTKFile type="UnstructuredGrid"  version="0.1"  >
<UnstructuredGrid>
<Piece  NumberOfPoints="81" NumberOfCells="128">
<Points>
<DataArray  type="Float64"  NumberOfComponents="3"  format="ascii">0 0 0  0.275 0 0  0.55 0 0  0.8250000000000001 0 0  1.1 0 0  1.375 0 0  1.65 0 0  1.925 0 0  2.2 0 0  0 0.05125 0  0.275 0.05125 0  0.55 0.05125 0  0.8250000000000001 0.05125 0  1.1 0.05125 0  1.375 0.05125 0  1.65 0.05125 0  1.925 0.05125 0  2.2 0.05125 0  0 0.1025 0  0.275 0.1025 0  0.55 0.1025 0  0.8250000000000001 0.1025 0  1.1 0.1025 0  1.375 0.1025 0  1.65 0.1025 0  1.925 0.1025 0  2.2 0.1025 0  0 0.15375 0  0.275 0.15375 0  0.55 0.15375 0  0.8250000000000001 0.15375 0  1.1 0.15375 0  1.375 0.15375 0  1.65 0.15375 0  1.925 0.15375 0  2.2 0.15375 0  0 0.205 0  0.275 0.205 0  0.55 0.205 0  0.8250000000000001 0.205 0  1.1 0.205 0  1.375 0.205 0  1.65 0.205 0  1.925 0.205 0  2.2 0.205 0  0 0.25625 0  0.275 0.25625 0  0.55 0.25625 0  0.8250000000000001 0.25625 0  1.1 0.25625 0  1.375 0.25625 0  1.65 0.25625 0  1.925 0.25625 0  2.2 0.25625 0  0 0.3075 0  0.275 0.3075 0  0.55 0.3075 0  0.8250000000000001 0.3075 0  1.1 0.3075 0  1.375 0.3075 0  1.65 0.3075 0  1.925 0.3075 0  2.2 0.3075 0  0 0.35875 0  0.275 0.35875 0  0.55 0.35875 0  0.8250000000000001 0.35875 0  1.1 0.35875 0  1.375 0.35875 0  1.65 0.35875 0  1.925 0.35875 0  2.2 0.35875 0  0 0.41 0  0.275 0.41 0  0.55 0.41 0  0.8250000000000001 0.41 0  1.1 0.41 0  1.375 0.41 0  1.65 0.41 0  1.925 0.41 0  2.2 0.41 0  </DataArray>
</Points>
<Cells>
<DataArray  type="UInt32"  Name="connectivity"  format="ascii">0 1 9  1 9 10  1 2 11  1 10 11  2 3 11  3 11 12  3 4 13  3 12 13  4 5 13  5 13 14  5 6 15  5 14 15  6 7 15  7 15 16  7 8 17  7 16 17  9 10 19  9 18 19  10 11 19  11 19 20  11 12 21  11 20 21  12 13 21  13 21 22  13 14 23  13 22 23  14 15 23  15 23 24  15 16 25  15 24 25  16 17 25  17 25 26  18 19 27  19 27 28  19 20 29  19 28 29  20 21 29  21 29 30  21 22 31  21 30 31  22 23 31  23 31 32  23 24 33  23 32 33  24 25 33  25 33 34  25 26 35  25 34 35  27 28 37  27 36 37  28 29 37  29 37 38  29 30 39  29 38 39  30 31 39  31 39 40  31 32 41  31 40 41  32 33 41  33 41 42  33 34 43  33 42 43  34 35 43  35 43 44  36 37 45  37 45 46  37 38 47  37 46 47  38 39 47  39 47 48  39 40 49  39 48 49  40 41 49  41 49 50  41 42 51  41 50 51  42 43 51  43 51 52  43 44 53  43 52 53  45 46 55  45 54 55  46 47 55  47 55 56  47 48 57  47 56 57  48 49 57  49 57 58  49 50 59  49 58 59  50 51 59  51 59 60  51 52 61  51 60 61  52 53 61  53 61 62  54 55 63  55 63 64  55 56 65  55 64 65  56 57 65  57 65 66  57 58 67  57 66 67  58 59 67  59 67 68  59 60 69  59 68 69  60 61 69  61 69 70  61 62 71  61 70 71  63 64 73  63 72 73  64 65 73  65 73 74  65 66 75  65 74 75  66 67 75  67 75 76  67 68 77  67 76 77  68 69 77  69 77 78  69 70 79  69 78 79  70 71 79  71 79 80  </DataArray>
<DataArray  type="UInt32"  Name="offsets"  format="ascii">3 6 9 12 15 18 21 24 27 30 33 36 39 42 45 48 51 54 57 60 63 66 69 72 75 78 81 84 87 90 93 96 99 102 105 108 111 114 117 120 123 126 129 132 135 138 141 144 147 150 153 156 159 162 165 168 171 174 177 180 183 186 189 192 195 198 201 204 207 210 213 216 219 222 225 228 231 234 237 240 243 246 249 252 255 258 261 264 267 270 273 276 279 282 285 288 291 294 297 300 303 306 309 312 315 318 321 324 327 330 333 336 339 342 345 348 351 354 357 360 363 366 369 372 375 378 381 384 </DataArray>
<DataArray  type="UInt8"  Name="types"  format="ascii">5 5 5 5 5 5 5 5 5 5 5 5 5 5 5 5 5 5 5 5 5 5 5 5 5 5 5 5 5 5 5 5 5 5 5 5 5 5 5 5 5 5 5 5 5 5 5 5 5 5 5 5 5 5 5 5 5 5 5 5 5 5 5 5 5 5 5 5 5 5 5 5 5 5 5 5 5 5 5 5 5 5 5 5 5 5 5 5 5 5 5 5 5 5 5 5 5 5 5 5 5 5 5 5 5 5 5 5 5 5 5 5 5 5 5 5 5 5 5 5 5 5 5 5 5 5 5 5 </DataArray>
</Cells>
<PointData  Vectors="f_16"> 
<DataArray  type="Float64"  Name="f_16"  NumberOfComponents="3" format="ascii">2.0489824250095748e-05 -4.4502348291839359e-09 0.0000000000000000e+00  -1.2015265051586143e-06 4.3012758669729332e-12 0.0000000000000000e+00  1.0431881654079723e-06 -9.3862410570355309e-10 0.0000000000000000e+00  -8.2923450540941464e-06 8.6786430827560295e-10 0.0000000000000000e+00  -2.9396315933732386e-06 9.0512895852876335e-11 0.0000000000000000e+00  -4.7738225426407514e-06 -7.6467743053562831e-10 0.0000000000000000e+00  -5.1849756213171765e-06 -5.5492217086728309e-10 0.0000000000000000e+00  -5.9217901550725397e-06 -6.6140302258066602e-10 0.0000000000000000e+00  -1.2390688456735241e-06 1.7738636946878188e-10 0.0000000000000000e+00  6.5624702195863516e-01 -3.4117297229974669e-10 0.0000000000000000e+00  6.5714340915299463e-01 -1.3038311604329634e-04 0.0000000000000000e+00  6.5835781591936227e-01 1.3462279484662825e-04 0.0000000000000000e+00  6.5821273732005858e-01 -3.2396099538029741e-05 0.0000000000000000e+00  6.5875360988169585e-01 -1.6023705636069652e-05 0.0000000000000000e+00  6.5863040275955143e-01 3.7079811116572246e-05 0.0000000000000000e+00  6.5834463543301047e-01 2.3237210969495385e-06 0.0000000000000000e+00  6.5749304111307616e-01 2.3651543072153526e-05 0.0000000000000000e+00  6.5744804531040790e-01 -2.8229898646325550e-05 0.0000000000000000e+00  1.1249841011661463e+00 1.1002016540529020e-09 0.0000000000000000e+00  1.1255574635993855e+00 -6.2435568078832008e-04 0.0000000000000000e+00  1.1238800526112458e+00 -1.5323973934143543e-04 0.0000000000000000e+00  1.1264675660651422e+00 -1.2641762318866352e-04 0.0000000000000000e+00  1.1255990928010693e+00 1.0837967783150043e-05 0.0000000000000000e+00  1.1252598562743432e+00 1.7142220493072396e-04 0.0000000000000000e+00  1.1252003947558573e+00 1.5532535040230322e-04 0.0000000000000000e+00  1.1246274479551286e+00 2.0751906352538263e-04 0.0000000000000000e+00  1.1241185944498870e+00 1.6234813735338860e-04 0.0000000000000000e+00  1.4062394801728095e+00 4.3266771894971224e-11 0.0000000000000000e+00  1.4055920718789765e+00 -1.6539531397661460e-04 0.0000000000000000e+00  1.4068512960360329e+00 -1.3959572618579334e-04 0.0000000000000000e+00  1.4047003551483239e+00 -1.7652987274163041e-04 0.0000000000000000e+00  1.4071690953842646e+00 -1.8473914909756929e-04 0.0000000000000000e+00  1.4061250514304411e+00 9.5263784377061701e-05 0.0000000000000000e+00  1.4057925935028148e+00 1.7281346195061959e-04 0.0000000000000000e+00  1.4055969267727679e+00 2.1499912184587373e-04 0.0000000000000000e+00  1.4055221509956100e+00 1.4467772032241677e-04 0.0000000000000000e+00  1.4999818425016278e+00 8.8115620912978817e-10 0.0000000000000000e+00  1.5000931356428930e+00 -1.5715011417413716e-04 0.0000000000000000e+00  1.4989043202300802e+00 -1.8353253853128123e-04 0.0000000000000000e+00  1.4995359321558588e+00 -1.2498034029838226e-04 0.0000000000000000e+00  1.4973198258775937e+00 -6.2579260661373913e-05 0.0000000000000000e+00  1.4993687079636930e+00 8.6752892254445660e-05 0.0000000000000000e+00  1.4985470692969145e+00 2.8849280371046217e-04 0.0000000000000000e+00  1.4980531816991236e+00 4.6739302312093716e-04 0.0000000000000000e+00  1.4981430909928339e+00 3.5159784048411079e-04 0.0000000000000000e+00  1.4062361154692677e+00 5.0387498000028392e-10 0.0000000000000000e+00  1.4054996964776287e+00 -5.3124758704733657e-05 0.0000000000000000e+00  1.4059470122467892e+00 -2.4421186904864407e-04 0.0000000000000000e+00  1.4049321743465204e+00 -9.5840505146884422e-05 0.0000000000000000e+00  1.4064402404829104e+00 7.1360898154738768e-05 0.0000000000000000e+00  1.4037027979079271e+00 6.5628563301432249e-05 0.0000000000000000e+00  1.4066956818767964e+00 2.0437592338848936e-04 0.0000000000000000e+00  1.4051615215803579e+00 3.6395516542292846e-04 0.0000000000000000e+00  1.4050662869421791e+00 3.5910285368996088e-04 0.0000000000000000e+00  1.1249860147096011e+00 -1.9288737342145149e-10 0.0000000000000000e+00  1.1252886882078068e+00 1.9518478524087961e-04 0.0000000000000000e+00  1.1248886342340998e+00 -7.6102425334376251e-05 0.0000000000000000e+00  1.1244941856046569e+00 -7.7930915066490959e-05 0.0000000000000000e+00  1.1240354248955116e+00 -2.1409699135999884e-05 0.0000000000000000e+00  1.1248057527783015e+00 3.5617092740748664e-06 0.0000000000000000e+00  1.1226160471146429e+00 2.1204725291183125e-04 0.0000000000000000e+00  1.1251003528644561e+00 4.4840832741541240e-04 0.0000000000000000e+00  1.1241122950173019e+00 5.0937191943750020e-04 0.0000000000000000e+00  6.5624143935021573e-01 -2.9289612680617787e-10 0.0000000000000000e+00  6.5589815792818418e-01 2.4694013458031701e-05 0.0000000000000000e+00  6.5652591229338098e-01 -2.0540916911530185e-04 0.0000000000000000e+00  6.5620331045367375e-01 -2.0492797833363048e-05 0.0000000000000000e+00  6.5663887944524180e-01 -2.3200971789915494e-05 0.0000000000000000e+00  6.5573157982296448e-01 3.8968772576003629e-05 0.0000000000000000e+00  6.5791257071552356e-01 2.2209154412287818e-04 0.0000000000000000e+00  6.5579232500676765e-01 1.8155559127777811e-04 0.0000000000000000e+00  6.5985876178675129e-01 5.5989046312699949e-04 0.0000000000000000e+00  -7.0282192495765895e-06 -7.7992036274968275e-10 0.0000000000000000e+00  -7.2267817940944948e-06 -5.0398650225516924e-10 0.0000000000000000e+00  -4.6034268028202026e-06 -1.9477622436147050e-10 0.0000000000000000e+00  -6.2737862121751685e-06 9.0500739410793352e-10 0.0000000000000000e+00  -2.2746729288330561e-06 1.0281453298729818e-09 0.0000000000000000e+00  -6.9285517699499804e-06 -1.4676614745954954e-09 0.0000000000000000e+00  -7.0873493236943275e-06 -3.3899414165746607e-10 0.0000000000000000e+00  4.7872066203927168e-07 4.6231452376804184e-10 0.0000000000000000e+00  -1.0283965265750612e-05 -4.5316536778712553e-09 0.0000000000000000e+00  </DataArray> 
</PointData> 
</Piece>
</UnstructuredGrid>
</VTKFile>