<?xml version="1.0"?>
<VTKFile type="UnstructuredGrid"  version="0.1"  >
<UnstructuredGrid>
<Piece  NumberOfPoints="81" NumberOfCells="128">
<Points>
<DataArray  type="Float64"  NumberOfComponents="3"  format="ascii">0 0 0  0.275 0 0  0.55 0 0  0.8250000000000001 0 0  1.1 0 0  1.375 0 0  1.65 0 0  1.925 0 0  2.2 0 0  0 0.05125 0  0.275 0.05125 0  0.55 0.05125 0  0.8250000000000001 0.05125 0  1.1 0.05125 0  1.375 0.05125 0  1.65 0.05125 0  1.925 0.05125 0  2.2 0.05125 0  0 0.1025 0  0.275 0.1025 0  0.55 0.1025 0  0.8250000000000001 0.1025 0  1.1 0.1025 0  1.375 0.1025 0  1.65 0.1025 0  1.925 0.1025 0  2.2 0.1025 0  0 0.15375 0  0.275 0.15375 0  0.55 0.15375 0  0.8250000000000001 0.15375 0  1.1 0.15375 0  1.375 0.15375 0  1.65 0.15375 0  1.925 0.15375 0  2.2 0.15375 0  0 0.205 0  0.275 0.205 0  0.55 0.205 0  0.8250000000000001 0.205 0  1.1 0.205 0  1.375 0.205 0  1.65 0.205 0  1.925 0.205 0  2.2 0.205 0  0 0.25625 0  0.275 0.25625 0  0.55 0.25625 0  0.8250000000000001 0.25625 0  1.1 0.25625 0  1.375 0.25625 0  1.65 0.25625 0  1.925 0.25625 0  2.2 0.25625 0  0 0.3075 0  0.275 0.3075 0  0.55 0.3075 0  0.8250000000000001 0.3075 0  1.1 0.3075 0  1.375 0.3075 0  1.65 0.3075 0  1.925 0.3075 0  2.2 0.3075 0  0 0.35875 0  0.275 0.35875 0  0.55 0.35875 0  0.8250000000000001 0.35875 0  1.1 0.35875 0  1.375 0.35875 0  1.65 0.35875 0  1.925 0.35875 0  2.2 0.35875 0  0 0.41 0  0.275 0.41 0  0.55 0.41 0  0.8250000000000001 0.41 0  1.1 0.41 0  1.375 0.41 0  1.65 0.41 0  1.925 0.41 0  2.2 0.41 0  </DataArray>
</Points>
<Cells>
<DataArray  type="UInt32"  Name="connectivity"  format="ascii">0 1 9  1 9 10  1 2 11  1 10 11  2 3 11  3 11 12  3 4 13  3 12 13  4 5 13  5 13 14  5 6 15  5 14 15  6 7 15  7 15 16  7 8 17  7 16 17  9 10 19  9 18 19  10 11 19  11 19 20  11 12 21  11 20 21  12 13 21  13 21 22  13 14 23  13 22 23  14 15 23  15 23 24  15 16 25  15 24 25  16 17 25  17 25 26  18 19 27  19 27 28  19 20 29  19 28 29  20 21 29  21 29 30  21 22 31  21 30 31  22 23 31  23 31 32  23 24 33  23 32 33  24 25 33  25 33 34  25 26 35  25 34 35  27 28 37  27 36 37  28 29 37  29 37 38  29 30 39  29 38 39  30 31 39  31 39 40  31 32 41  31 40 41  32 33 41  33 41 42  33 34 43  33 42 43  34 35 43  35 43 44  36 37 45  37 45 46  37 38 47  37 46 47  38 39 47  39 47 48  39 40 49  39 48 49  40 41 49  41 49 50  41 42 51  41 50 51  42 43 51  43 51 52  43 44 53  43 52 53  45 46 55  45 54 55  46 47 55  47 55 56  47 48 57  47 56 57  48 49 57  49 57 58  49 50 59  49 58 59  50 51 59  51 59 60  51 52 61  51 60 61  52 53 61  53 61 62  54 55 63  55 63 64  55 56 65  55 64 65  56 57 65  57 65 66  57 58 67  57 66 67  58 59 67  59 67 68  59 60 69  59 68 69  60 61 69  61 69 70  61 62 71  61 70 71  63 64 73  63 72 73  64 65 73  65 73 74  65 66 75  65 74 75  66 67 75  67 75 76  67 68 77  67 76 77  68 69 77  69 77 78  69 70 79  69 78 79  70 71 79  71 79 80  </DataArray>
<DataArray  type="UInt32"  Name="offsets"  format="ascii">3 6 9 12 15 18 21 24 27 30 33 36 39 42 45 48 51 54 57 60 63 66 69 72 75 78 81 84 87 90 93 96 99 102 105 108 111 114 117 120 123 126 129 132 135 138 141 144 147 150 153 156 159 162 165 168 171 174 177 180 183 186 189 192 195 198 201 204 207 210 213 216 219 222 225 228 231 234 237 240 243 246 249 252 255 258 261 264 267 270 273 276 279 282 285 288 291 294 297 300 303 306 309 312 315 318 321 324 327 330 333 336 339 342 345 348 351 354 357 360 363 366 369 372 375 378 381 384 </DataArray>
<DataArray  type="UInt8"  Name="types"  format="ascii">5 5 5 5 5 5 5 5 5 5 5 5 5 5 5 5 5 5 5 5 5 5 5 5 5 5 5 5 5 5 5 5 5 5 5 5 5 5 5 5 5 5 5 5 5 5 5 5 5 5 5 5 5 5 5 5 5 5 5 5 5 5 5 5 5 5 5 5 5 5 5 5 5 5 5 5 5 5 5 5 5 5 5 5 5 5 5 5 5 5 5 5 5 5 5 5 5 5 5 5 5 5 5 5 5 5 5 5 5 5 5 5 5 5 5 5 5 5 5 5 5 5 5 5 5 5 5 5 </DataArray>
</Cells>
<PointData  Vectors="f_16"> 
<DataArray  type="Float64"  Name="f_16"  NumberOfComponents="3" format="ascii">2.0488381720409714e-05 -4.3267647831629594e-09 0.0000000000000000e+00  -1.2011960235855891e-06 -1.0927386315692276e-10 0.0000000000000000e+00  1.0455607225298363e-06 -1.1131679019108568e-09 0.0000000000000000e+00  -8.2933662910179858e-06 1.3213771746250452e-09 0.0000000000000000e+00  -2.9432475110491344e-06 5.5765250482618098e-11 0.0000000000000000e+00  -4.7735324277242319e-06 -1.3060561834385764e-09 0.0000000000000000e+00  -5.1823641683423895e-06 -2.8825923551420556e-10 0.0000000000000000e+00  -5.9223486892410147e-06 1.2130050378266400e-10 0.0000000000000000e+00  -1.2399132275713900e-06 1.3597559335169524e-10 0.0000000000000000e+00  6.5624702126406187e-01 2.1386524246991706e-12 0.0000000000000000e+00  6.5718665382776709e-01 -1.2726068034828145e-04 0.0000000000000000e+00  6.5841906108647108e-01 1.3750124438996112e-04 0.0000000000000000e+00  6.5826837488255907e-01 -3.5494640452536107e-05 0.0000000000000000e+00  6.5885398214741653e-01 -2.9472395295736968e-05 0.0000000000000000e+00  6.5865500373322239e-01 2.5584606251844060e-05 0.0000000000000000e+00  6.5843355875104981e-01 1.0668661183707475e-05 0.0000000000000000e+00  6.5732302193578007e-01 4.3982106646180243e-05 0.0000000000000000e+00  6.5741373352929533e-01 -8.1649207755555696e-05 0.0000000000000000e+00  1.1249840989320918e+00 9.0529530316681364e-10 0.0000000000000000e+00  1.1256376238077097e+00 -6.1986699359773312e-04 0.0000000000000000e+00  1.1238662347399953e+00 -1.4547658573179961e-04 0.0000000000000000e+00  1.1265290897706550e+00 -1.6511402466739658e-04 0.0000000000000000e+00  1.1256381076653554e+00 -1.7270656463325903e-06 0.0000000000000000e+00  1.1253427373335603e+00 1.8141785120101718e-04 0.0000000000000000e+00  1.1251678733633033e+00 1.6860337258899763e-04 0.0000000000000000e+00  1.1245433017742907e+00 2.4169558444822443e-04 0.0000000000000000e+00  1.1241064946967165e+00 1.2519577239069327e-04 0.0000000000000000e+00  1.4062394786599766e+00 -2.8887494872144438e-10 0.0000000000000000e+00  1.4055693674076770e+00 -1.4888563304853722e-04 0.0000000000000000e+00  1.4067648357432403e+00 -1.4367041957394279e-04 0.0000000000000000e+00  1.4047285674057721e+00 -2.1369940857905435e-04 0.0000000000000000e+00  1.4073450982066980e+00 -1.7241267611220121e-04 0.0000000000000000e+00  1.4060633787522219e+00 1.3562161981099151e-04 0.0000000000000000e+00  1.4055718824022230e+00 1.7247755197709219e-04 0.0000000000000000e+00  1.4056576534839069e+00 2.3470977453432810e-04 0.0000000000000000e+00  1.4056455950292543e+00 1.3117633256271344e-04 0.0000000000000000e+00  1.4999818393054773e+00 9.0139277027223957e-10 0.0000000000000000e+00  1.5000621252884550e+00 -1.5603635270707949e-04 0.0000000000000000e+00  1.4987914839190108e+00 -1.8163701872751496e-04 0.0000000000000000e+00  1.4996546284365673e+00 -1.2472100424990159e-04 0.0000000000000000e+00  1.4974898527225611e+00 -6.0810795320227470e-05 0.0000000000000000e+00  1.4992065002494868e+00 9.4280457211157401e-05 0.0000000000000000e+00  1.4982752776241344e+00 2.9641718546940187e-04 0.0000000000000000e+00  1.4981968447078891e+00 4.7250079184558486e-04 0.0000000000000000e+00  1.4983233478481310e+00 3.5111233427562562e-04 0.0000000000000000e+00  1.4062361137516097e+00 8.3621256705707421e-10 0.0000000000000000e+00  1.4054786904566814e+00 -6.8487604370534531e-05 0.0000000000000000e+00  1.4058655142501335e+00 -2.3725220534198435e-04 0.0000000000000000e+00  1.4049622231967189e+00 -5.6275045759120911e-05 0.0000000000000000e+00  1.4066181592247871e+00 6.2195876937177520e-05 0.0000000000000000e+00  1.4036620214181588e+00 3.6667570827411035e-05 0.0000000000000000e+00  1.4065130754797268e+00 2.2007227472834614e-04 0.0000000000000000e+00  1.4052724114605339e+00 3.5203548190429696e-04 0.0000000000000000e+00  1.4052461416064417e+00 3.6711344780915068e-04 0.0000000000000000e+00  1.1249860123237143e+00 3.2073503573363633e-12 0.0000000000000000e+00  1.1253657299698951e+00 1.9132661601890341e-04 0.0000000000000000e+00  1.1248792237326017e+00 -8.2074106110389993e-05 0.0000000000000000e+00  1.1245624926784905e+00 -3.7948334253196956e-05 0.0000000000000000e+00  1.1240901022591077e+00 -5.2242530560948449e-06 0.0000000000000000e+00  1.1249215591908410e+00 1.3620693909376468e-06 0.0000000000000000e+00  1.1226500067557197e+00 2.0649351540278694e-04 0.0000000000000000e+00  1.1251106849039127e+00 4.1926305087179692e-04 0.0000000000000000e+00  1.1242012429879658e+00 5.4285152059283892e-04 0.0000000000000000e+00  6.5624143823080072e-01 -6.2392699013561023e-10 0.0000000000000000e+00  6.5594091791831244e-01 2.1705186657040735e-05 0.0000000000000000e+00  6.5658784736174058e-01 -2.0777268993350996e-04 0.0000000000000000e+00  6.5626681661755648e-01 -1.6586039520734287e-05 0.0000000000000000e+00  6.5675701462266811e-01 -8.7191273197066836e-06 0.0000000000000000e+00  6.5579682731031430e-01 5.2634293769970587e-05 0.0000000000000000e+00  6.5806672117639475e-01 2.1601859341753617e-04 0.0000000000000000e+00  6.5570972170487574e-01 1.6238212778378895e-04 0.0000000000000000e+00  6.5990202199674286e-01 6.0869054735923145e-04 0.0000000000000000e+00  -7.0298762869625021e-06 -9.7869124745324122e-10 0.0000000000000000e+00  -7.2266120602942505e-06 -4.3503523579077820e-10 0.0000000000000000e+00  -4.6009186992798000e-06 -1.1550772219678402e-10 0.0000000000000000e+00  -6.2746587053019976e-06 4.0257493571123744e-10 0.0000000000000000e+00  -2.2779539398012075e-06 1.0712807604115136e-09 0.0000000000000000e+00  -6.9282723548393221e-06 -8.3522152880899374e-10 0.0000000000000000e+00  -7.0854202549687846e-06 -4.0449249276686108e-10 0.0000000000000000e+00  4.7806209038765484e-07 -1.7483658007072033e-10 0.0000000000000000e+00  -1.0286865643577963e-05 -4.4720410928171732e-09 0.0000000000000000e+00  </DataArray> 
</PointData> 
</Piece>
</UnstructuredGrid>
</VTKFile>