<?xml version="1.0"?>
<VTKFile type="UnstructuredGrid"  version="0.1"  >
<UnstructuredGrid>
<Piece  NumberOfPoints="81" NumberOfCells="128">
<Points>
<DataArray  type="Float64"  NumberOfComponents="3"  format="ascii">0 0 0  0.275 0 0  0.55 0 0  0.8250000000000001 0 0  1.1 0 0  1.375 0 0  1.65 0 0  1.925 0 0  2.2 0 0  0 0.05125 0  0.275 0.05125 0  0.55 0.05125 0  0.8250000000000001 0.05125 0  1.1 0.05125 0  1.375 0.05125 0  1.65 0.05125 0  1.925 0.05125 0  2.2 0.05125 0  0 0.1025 0  0.275 0.1025 0  0.55 0.1025 0  0.8250000000000001 0.1025 0  1.1 0.1025 0  1.375 0.1025 0  1.65 0.1025 0  1.925 0.1025 0  2.2 0.1025 0  0 0.15375 0  0.275 0.15375 0  0.55 0.15375 0  0.8250000000000001 0.15375 0  1.1 0.15375 0  1.375 0.15375 0  1.65 0.15375 0  1.925 0.15375 0  2.2 0.15375 0  0 0.205 0  0.275 0.205 0  0.55 0.205 0  0.8250000000000001 0.205 0  1.1 0.205 0  1.375 0.205 0  1.65 0.205 0  1.925 0.205 0  2.2 0.205 0  0 0.25625 0  0.275 0.25625 0  0.55 0.25625 0  0.8250000000000001 0.25625 0  1.1 0.25625 0  1.375 0.25625 0  1.65 0.25625 0  1.925 0.25625 0  2.2 0.25625 0  0 0.3075 0  0.275 0.3075 0  0.55 0.3075 0  0.8250000000000001 0.3075 0  1.1 0.3075 0  1.375 0.3075 0  1.65 0.3075 0  1.925 0.3075 0  2.2 0.3075 0  0 0.35875 0  0.275 0.35875 0  0.55 0.35875 0  0.8250000000000001 0.35875 0  1.1 0.35875 0  1.375 0.35875 0  1.65 0.35875 0  1.925 0.35875 0  2.2 0.35875 0  0 0.41 0  0.275 0.41 0  0.55 0.41 0  0.8250000000000001 0.41 0  1.1 0.41 0  1.375 0.41 0  1.65 0.41 0  1.925 0.41 0  2.2 0.41 0  </DataArray>
</Points>
<Cells>
<DataArray  type="UInt32"  Name="connectivity"  format="ascii">0 1 9  1 9 10  1 2 11  1 10 11  2 3 11  3 11 12  3 4 13  3 12 13  4 5 13  5 13 14  5 6 15  5 14 15  6 7 15  7 15 16  7 8 17  7 16 17  9 10 19  9 18 19  10 11 19  11 19 20  11 12 21  11 20 21  12 13 21  13 21 22  13 14 23  13 22 23  14 15 23  15 23 24  15 16 25  15 24 25  16 17 25  17 25 26  18 19 27  19 27 28  19 20 29  19 28 29  20 21 29  21 29 30  21 22 31  21 30 31  22 23 31  23 31 32  23 24 33  23 32 33  24 25 33  25 33 34  25 26 35  25 34 35  27 28 37  27 36 37  28 29 37  29 37 38  29 30 39  29 38 39  30 31 39  31 39 40  31 32 41  31 40 41  32 33 41  33 41 42  33 34 43  33 42 43  34 35 43  35 43 44  36 37 45  37 45 46  37 38 47  37 46 47  38 39 47  39 47 48  39 40 49  39 48 49  40 41 49  41 49 50  41 42 51  41 50 51  42 43 51  43 51 52  43 44 53  43 52 53  45 46 55  45 54 55  46 47 55  47 55 56  47 48 57  47 56 57  48 49 57  49 57 58  49 50 59  49 58 59  50 51 59  51 59 60  51 52 61  51 60 61  52 53 61  53 61 62  54 55 63  55 63 64  55 56 65  55 64 65  56 57 65  57 65 66  57 58 67  57 66 67  58 59 67  59 67 68  59 60 69  59 68 69  60 61 69  61 69 70  61 62 71  61 70 71  63 64 73  63 72 73  64 65 73  65 73 74  65 66 75  65 74 75  66 67 75  67 75 76  67 68 77  67 76 77  68 69 77  69 77 78  69 70 79  69 78 79  70 71 79  71 79 80  </DataArray>
<DataArray  type="UInt32"  Name="offsets"  format="ascii">3 6 9 12 15 18 21 24 27 30 33 36 39 42 45 48 51 54 57 60 63 66 69 72 75 78 81 84 87 90 93 96 99 102 105 108 111 114 117 120 123 126 129 132 135 138 141 144 147 150 153 156 159 162 165 168 171 174 177 180 183 186 189 192 195 198 201 204 207 210 213 216 219 222 225 228 231 234 237 240 243 246 249 252 255 258 261 264 267 270 273 276 279 282 285 288 291 294 297 300 303 306 309 312 315 318 321 324 327 330 333 336 339 342 345 348 351 354 357 360 363 366 369 372 375 378 381 384 </DataArray>
<DataArray  type="UInt8"  Name="types"  format="ascii">5 5 5 5 5 5 5 5 5 5 5 5 5 5 5 5 5 5 5 5 5 5 5 5 5 5 5 5 5 5 5 5 5 5 5 5 5 5 5 5 5 5 5 5 5 5 5 5 5 5 5 5 5 5 5 5 5 5 5 5 5 5 5 5 5 5 5 5 5 5 5 5 5 5 5 5 5 5 5 5 5 5 5 5 5 5 5 5 5 5 5 5 5 5 5 5 5 5 5 5 5 5 5 5 5 5 5 5 5 5 5 5 5 5 5 5 5 5 5 5 5 5 5 5 5 5 5 5 </DataArray>
</Cells>
<PointData  Vectors="f_16"> 
<DataArray  type="Float64"  Name="f_16"  NumberOfComponents="3" format="ascii">2.0490736664996655e-05 -4.4702783301437410e-09 0.0000000000000000e+00  -1.2011626559958621e-06 -7.9043704369093880e-14 0.0000000000000000e+00  1.0424860059430195e-06 -7.7672351648427679e-10 0.0000000000000000e+00  -8.2928743907196785e-06 6.6007243161986856e-10 0.0000000000000000e+00  -2.9384043212862531e-06 -1.4873957898762534e-10 0.0000000000000000e+00  -4.7730837677459287e-06 -4.1145283368411304e-10 0.0000000000000000e+00  -5.1866423994101153e-06 -1.8333083849841536e-10 0.0000000000000000e+00  -5.9221078761910184e-06 -9.2120032361906383e-10 0.0000000000000000e+00  -1.2357827052587412e-06 -1.2568357880995012e-11 0.0000000000000000e+00  6.5624702271249968e-01 -6.0557703589079475e-10 0.0000000000000000e+00  6.5717905665313892e-01 -1.2801956573951705e-04 0.0000000000000000e+00  6.5839316814429527e-01 1.3031163466356027e-04 0.0000000000000000e+00  6.5824520682805343e-01 -3.7613321999784780e-05 0.0000000000000000e+00  6.5881661017634507e-01 -1.7761914278711673e-05 0.0000000000000000e+00  6.5863359830619228e-01 3.5158433760368868e-05 0.0000000000000000e+00  6.5837982030277831e-01 -1.6739383305644711e-06 0.0000000000000000e+00  6.5738856673088852e-01 4.9478553415311898e-05 0.0000000000000000e+00  6.5739259696524255e-01 -5.2000795537075401e-05 0.0000000000000000e+00  1.1249841019209676e+00 7.6949648809955922e-10 0.0000000000000000e+00  1.1256107559387583e+00 -6.2854375640415195e-04 0.0000000000000000e+00  1.1238767289127334e+00 -1.6605677729560319e-04 0.0000000000000000e+00  1.1265358745904541e+00 -1.3788049131529867e-04 0.0000000000000000e+00  1.1256080655594625e+00 2.3255845126704377e-05 0.0000000000000000e+00  1.1252301611966882e+00 1.7054996374798529e-04 0.0000000000000000e+00  1.1251860189198752e+00 1.3889626260203127e-04 0.0000000000000000e+00  1.1246285528631073e+00 2.5743629388081063e-04 0.0000000000000000e+00  1.1240732824056299e+00 1.5892207149339433e-04 0.0000000000000000e+00  1.4062394809210366e+00 -1.3421308955218278e-10 0.0000000000000000e+00  1.4055787040403074e+00 -1.6911832715348174e-04 0.0000000000000000e+00  1.4069086968292119e+00 -1.5396733203388579e-04 0.0000000000000000e+00  1.4047563884494625e+00 -1.6369854947307958e-04 0.0000000000000000e+00  1.4070823736857834e+00 -1.6370440979997117e-04 0.0000000000000000e+00  1.4060244792747907e+00 8.4187635199639305e-05 0.0000000000000000e+00  1.4057929267978864e+00 1.5339515797186228e-04 0.0000000000000000e+00  1.4056377465761651e+00 2.5766162396113375e-04 0.0000000000000000e+00  1.4055636989428928e+00 1.5674300619396495e-04 0.0000000000000000e+00  1.4999818435976984e+00 8.5117447728625550e-10 0.0000000000000000e+00  1.5000967680341331e+00 -1.5643282217730613e-04 0.0000000000000000e+00  1.4989781611631476e+00 -1.8332750718815931e-04 0.0000000000000000e+00  1.4996118061817660e+00 -1.2458324070907696e-04 0.0000000000000000e+00  1.4971747972286300e+00 -5.9469136305382626e-05 0.0000000000000000e+00  1.4992457586259467e+00 9.1901203201483892e-05 0.0000000000000000e+00  1.4985768984677321e+00 2.9256131778369312e-04 0.0000000000000000e+00  1.4980653160371995e+00 4.7174408028320030e-04 0.0000000000000000e+00  1.4982653316747663e+00 3.5330930699594044e-04 0.0000000000000000e+00  1.4062361162729768e+00 6.4953077586993020e-10 0.0000000000000000e+00  1.4054878513851454e+00 -4.8743109350822069e-05 0.0000000000000000e+00  1.4060036542493475e+00 -2.3017739017926957e-04 0.0000000000000000e+00  1.4049884625411873e+00 -1.0728596148526006e-04 0.0000000000000000e+00  1.4063609436158846e+00 5.5577839281152714e-05 0.0000000000000000e+00  1.4036173132865211e+00 8.5176110701472050e-05 0.0000000000000000e+00  1.4067171909859288e+00 2.3206947095754713e-04 0.0000000000000000e+00  1.4052362701753203e+00 3.2770272174835376e-04 0.0000000000000000e+00  1.4051514086719876e+00 3.4749905212026619e-04 0.0000000000000000e+00  1.1249860154166509e+00 1.2079995369881695e-10 0.0000000000000000e+00  1.1253408032760563e+00 1.9982169241489672e-04 0.0000000000000000e+00  1.1248880496065670e+00 -6.2650720921232628e-05 0.0000000000000000e+00  1.1245644046159695e+00 -6.5927232750172685e-05 0.0000000000000000e+00  1.1240552525452845e+00 -3.0855643594379879e-05 0.0000000000000000e+00  1.1248022811050022e+00 1.0565409078714176e-05 0.0000000000000000e+00  1.1226458843630849e+00 2.3381668494099566e-04 0.0000000000000000e+00  1.1251656152042251e+00 4.0298735015201621e-04 0.0000000000000000e+00  1.1241422423838443e+00 5.1206721203398981e-04 0.0000000000000000e+00  6.5624143981820515e-01 -6.0655567119311324e-11 0.0000000000000000e+00  6.5593307979596893e-01 2.2457970172752138e-05 0.0000000000000000e+00  6.5656197757269763e-01 -2.0096288674386202e-04 0.0000000000000000e+00  6.5624157710623232e-01 -1.4820519237809825e-05 0.0000000000000000e+00  6.5671293088153970e-01 -2.0637286581100572e-05 0.0000000000000000e+00  6.5576243778663346e-01 4.2604086705680796e-05 0.0000000000000000e+00  6.5799324749169075e-01 2.2763976169604101e-04 0.0000000000000000e+00  6.5574958941817207e-01 1.5710217845606148e-04 0.0000000000000000e+00  6.5986190855061555e-01 5.8122054337149582e-04 0.0000000000000000e+00  -7.0274830872491270e-06 -7.9449653216395447e-10 0.0000000000000000e+00  -7.2265157987134568e-06 -5.4630231319302358e-10 0.0000000000000000e+00  -4.6041223402206087e-06 -3.5319193856050303e-10 0.0000000000000000e+00  -6.2744686298134060e-06 1.0667342220142821e-09 0.0000000000000000e+00  -2.2731476400832137e-06 1.2481770022623001e-09 0.0000000000000000e+00  -6.9278135275971773e-06 -1.7220138939256463e-09 0.0000000000000000e+00  -7.0898385588333929e-06 -5.8081617038142173e-10 0.0000000000000000e+00  4.7823111136681410e-07 7.1386326855313480e-10 0.0000000000000000e+00  -1.0282020842057713e-05 -4.2297555075961909e-09 0.0000000000000000e+00  </DataArray> 
</PointData> 
</Piece>
</UnstructuredGrid>
</VTKFile>