<?xml version="1.0"?>
<VTKFile type="UnstructuredGrid"  version="0.1"  >
<UnstructuredGrid>
<Piece  NumberOfPoints="81" NumberOfCells="128">
<Points>
<DataArray  type="Float64"  NumberOfComponents="3"  format="ascii">0 0 0  0.275 0 0  0.55 0 0  0.8250000000000001 0 0  1.1 0 0  1.375 0 0  1.65 0 0  1.925 0 0  2.2 0 0  0 0.05125 0  0.275 0.05125 0  0.55 0.05125 0  0.8250000000000001 0.05125 0  1.1 0.05125 0  1.375 0.05125 0  1.65 0.05125 0  1.925 0.05125 0  2.2 0.05125 0  0 0.1025 0  0.275 0.1025 0  0.55 0.1025 0  0.8250000000000001 0.1025 0  1.1 0.1025 0  1.375 0.1025 0  1.65 0.1025 0  1.925 0.1025 0  2.2 0.1025 0  0 0.15375 0  0.275 0.15375 0  0.55 0.15375 0  0.8250000000000001 0.15375 0  1.1 0.15375 0  1.375 0.15375 0  1.65 0.15375 0  1.925 0.15375 0  2.2 0.15375 0  0 0.205 0  0.275 0.205 0  0.55 0.205 0  0.8250000000000001 0.205 0  1.1 0.205 0  1.375 0.205 0  1.65 0.205 0  1.925 0.205 0  2.2 0.205 0  0 0.25625 0  0.275 0.25625 0  0.55 0.25625 0  0.8250000000000001 0.25625 0  1.1 0.25625 0  1.375 0.25625 0  1.65 0.25625 0  1.925 0.25625 0  2.2 0.25625 0  0 0.3075 0  0.275 0.3075 0  0.55 0.3075 0  0.8250000000000001 0.3075 0  1.1 0.3075 0  1.375 0.3075 0  1.65 0.3075 0  1.925 0.3075 0  2.2 0.3075 0  0 0.35875 0  0.275 0.35875 0  0.55 0.35875 0  0.8250000000000001 0.35875 0  1.1 0.35875 0  1.375 0.35875 0  1.65 0.35875 0  1.925 0.35875 0  2.2 0.35875 0  0 0.41 0  0.275 0.41 0  0.55 0.41 0  0.8250000000000001 0.41 0  1.1 0.41 0  1.375 0.41 0  1.65 0.41 0  1.925 0.41 0  2.2 0.41 0  </DataArray>
</Points>
<Cells>
<DataArray  type="UInt32"  Name="connectivity"  format="ascii">0 1 9  1 9 10  1 2 11  1 10 11  2 3 11  3 11 12  3 4 13  3 12 13  4 5 13  5 13 14  5 6 15  5 14 15  6 7 15  7 15 16  7 8 17  7 16 17  9 10 19  9 18 19  10 11 19  11 19 20  11 12 21  11 20 21  12 13 21  13 21 22  13 14 23  13 22 23  14 15 23  15 23 24  15 16 25  15 24 25  16 17 25  17 25 26  18 19 27  19 27 28  19 20 29  19 28 29  20 21 29  21 29 30  21 22 31  21 30 31  22 23 31  23 31 32  23 24 33  23 32 33  24 25 33  25 33 34  25 26 35  25 34 35  27 28 37  27 36 37  28 29 37  29 37 38  29 30 39  29 38 39  30 31 39  31 39 40  31 32 41  31 40 41  32 33 41  33 41 42  33 34 43  33 42 43  34 35 43  35 43 44  36 37 45  37 45 46  37 38 47  37 46 47  38 39 47  39 47 48  39 40 49  39 48 49  40 41 49  41 49 50  41 42 51  41 50 51  42 43 51  43 51 52  43 44 53  43 52 53  45 46 55  45 54 55  46 47 55  47 55 56  47 48 57  47 56 57  48 49 57  49 57 58  49 50 59  49 58 59  50 51 59  51 59 60  51 52 61  51 60 61  52 53 61  53 61 62  54 55 63  55 63 64  55 56 65  55 64 65  56 57 65  57 65 66  57 58 67  57 66 67  58 59 67  59 67 68  59 60 69  59 68 69  60 61 69  61 69 70  61 62 71  61 70 71  63 64 73  63 72 73  64 65 73  65 73 74  65 66 75  65 74 75  66 67 75  67 75 76  67 68 77  67 76 77  68 69 77  69 77 78  69 70 79  69 78 79  70 71 79  71 79 80  </DataArray>
<DataArray  type="UInt32"  Name="offsets"  format="ascii">3 6 9 12 15 18 21 24 27 30 33 36 39 42 45 48 51 54 57 60 63 66 69 72 75 78 81 84 87 90 93 96 99 102 105 108 111 114 117 120 123 126 129 132 135 138 141 144 147 150 153 156 159 162 165 168 171 174 177 180 183 186 189 192 195 198 201 204 207 210 213 216 219 222 225 228 231 234 237 240 243 246 249 252 255 258 261 264 267 270 273 276 279 282 285 288 291 294 297 300 303 306 309 312 315 318 321 324 327 330 333 336 339 342 345 348 351 354 357 360 363 366 369 372 375 378 381 384 </DataArray>
<DataArray  type="UInt8"  Name="types"  format="ascii">5 5 5 5 5 5 5 5 5 5 5 5 5 5 5 5 5 5 5 5 5 5 5 5 5 5 5 5 5 5 5 5 5 5 5 5 5 5 5 5 5 5 5 5 5 5 5 5 5 5 5 5 5 5 5 5 5 5 5 5 5 5 5 5 5 5 5 5 5 5 5 5 5 5 5 5 5 5 5 5 5 5 5 5 5 5 5 5 5 5 5 5 5 5 5 5 5 5 5 5 5 5 5 5 5 5 5 5 5 5 5 5 5 5 5 5 5 5 5 5 5 5 5 5 5 5 5 5 </DataArray>
</Cells>
<PointData  Vectors="f_16"> 
<DataArray  type="Float64"  Name="f_16"  NumberOfComponents="3" format="ascii">2.0489737387862586e-05 -4.4156533051871735e-09 0.0000000000000000e+00  -1.2013099545439228e-06 -2.2319091548834930e-11 0.0000000000000000e+00  1.0437624171766127e-06 -9.8898579140979615e-10 0.0000000000000000e+00  -8.2927176852441411e-06 9.9690569013225714e-10 0.0000000000000000e+00  -2.9405366337873924e-06 1.2868940599873190e-11 0.0000000000000000e+00  -4.7736539017296724e-06 -8.3713053925316438e-10 0.0000000000000000e+00  -5.1846499966625051e-06 -4.0553622357856339e-10 0.0000000000000000e+00  -5.9223789420126440e-06 -4.4494263536845253e-10 0.0000000000000000e+00  -1.2395673226964663e-06 1.9265766492667129e-10 0.0000000000000000e+00  6.5624702208162666e-01 -2.7027704335734839e-10 0.0000000000000000e+00  6.5712386991778937e-01 -1.2749851573969553e-04 0.0000000000000000e+00  6.5837190268527190e-01 1.3413191673661030e-04 0.0000000000000000e+00  6.5820419515101225e-01 -3.2469058643374462e-05 0.0000000000000000e+00  6.5877266498579223e-01 -2.0476340891055650e-05 0.0000000000000000e+00  6.5863226127642405e-01 3.7338208135385026e-05 0.0000000000000000e+00  6.5836102031062782e-01 1.4702554255598923e-06 0.0000000000000000e+00  6.5750630408599042e-01 2.7462727413107717e-05 0.0000000000000000e+00  6.5751343786756122e-01 -4.3450514331225951e-05 0.0000000000000000e+00  1.1249841010170409e+00 9.9143866452574674e-10 0.0000000000000000e+00  1.1255468178895551e+00 -6.1913244114240591e-04 0.0000000000000000e+00  1.1238774591928569e+00 -1.5392136687300000e-04 0.0000000000000000e+00  1.1264587688468619e+00 -1.3332872615831669e-04 0.0000000000000000e+00  1.1256157476128164e+00 9.2274745293156083e-06 0.0000000000000000e+00  1.1252593259929928e+00 1.8379420592665145e-04 0.0000000000000000e+00  1.1251998494837596e+00 1.5020246008629984e-04 0.0000000000000000e+00  1.1246450383125859e+00 2.1071935638224902e-04 0.0000000000000000e+00  1.1241689844898897e+00 1.4369376150007426e-04 0.0000000000000000e+00  1.4062394803146976e+00 -1.0327217625487593e-10 0.0000000000000000e+00  1.4055803718439688e+00 -1.6228079011576166e-04 0.0000000000000000e+00  1.4068357068302073e+00 -1.4400547198915601e-04 0.0000000000000000e+00  1.4047284883102957e+00 -1.8635224754475938e-04 0.0000000000000000e+00  1.4072189865648330e+00 -1.8004771823271261e-04 0.0000000000000000e+00  1.4061140997399542e+00 1.0113436445579078e-04 0.0000000000000000e+00  1.4057795133818043e+00 1.5884329083184852e-04 0.0000000000000000e+00  1.4056755728783772e+00 2.0957214585568616e-04 0.0000000000000000e+00  1.4055884396036253e+00 1.3046318392538936e-04 0.0000000000000000e+00  1.4999818421191999e+00 8.8554947929539677e-10 0.0000000000000000e+00  1.5000627139542766e+00 -1.5753782391984407e-04 0.0000000000000000e+00  1.4988852902573391e+00 -1.8407295228520389e-04 0.0000000000000000e+00  1.4995874731633865e+00 -1.2684607959315809e-04 0.0000000000000000e+00  1.4973595796208328e+00 -6.5960027962505126e-05 0.0000000000000000e+00  1.4993182079357144e+00 8.2583134850002657e-05 0.0000000000000000e+00  1.4985349342009497e+00 2.8131465490259451e-04 0.0000000000000000e+00  1.4981473363496940e+00 4.5756371187749139e-04 0.0000000000000000e+00  1.4982014653931897e+00 3.4107785854811705e-04 0.0000000000000000e+00  1.4062361155663363e+00 6.6111928384059130e-10 0.0000000000000000e+00  1.4054878103958772e+00 -5.6708890277906226e-05 0.0000000000000000e+00  1.4059318171173998e+00 -2.4003862739429286e-04 0.0000000000000000e+00  1.4049558812969811e+00 -8.9151571989322146e-05 0.0000000000000000e+00  1.4064816934584079e+00 6.1102302812627158e-05 0.0000000000000000e+00  1.4036771678749325e+00 5.0960327318770470e-05 0.0000000000000000e+00  1.4066552142380782e+00 2.0436502296456531e-04 0.0000000000000000e+00  1.4051918760799140e+00 3.5209478049287650e-04 0.0000000000000000e+00  1.4050602909610859e+00 3.5429024281818098e-04 0.0000000000000000e+00  1.1249860143991235e+00 -5.7262522542969826e-11 0.0000000000000000e+00  1.1252781505645240e+00 1.8953635298156533e-04 0.0000000000000000e+00  1.1248837020972100e+00 -7.6354487942843771e-05 0.0000000000000000e+00  1.1244802105652096e+00 -7.3087429549707354e-05 0.0000000000000000e+00  1.1240369147177487e+00 -2.3719862444688590e-05 0.0000000000000000e+00  1.1247771917156622e+00 -1.4662318502249849e-05 0.0000000000000000e+00  1.1225615357886147e+00 2.0799385829736950e-04 0.0000000000000000e+00  1.1250295125643586e+00 4.3397553457368747e-04 0.0000000000000000e+00  1.1240277492365969e+00 5.1597109277470952e-04 0.0000000000000000e+00  6.5624143947863911e-01 -3.4009984822074148e-10 0.0000000000000000e+00  6.5587880898589224e-01 2.1700773875002561e-05 0.0000000000000000e+00  6.5653731318981456e-01 -2.0527234524318920e-04 0.0000000000000000e+00  6.5618715711053710e-01 -2.1150644570822646e-05 0.0000000000000000e+00  6.5664195405553183e-01 -2.0348266272650168e-05 0.0000000000000000e+00  6.5570000600513234e-01 3.6479873090561011e-05 0.0000000000000000e+00  6.5786950886131990e-01 2.1947952165573691e-04 0.0000000000000000e+00  6.5571202933405892e-01 1.7408588648057957e-04 0.0000000000000000e+00  6.5979434203509557e-01 5.7167953480357140e-04 0.0000000000000000e+00  -7.0284039970474384e-06 -8.3255834768785540e-10 0.0000000000000000e+00  -7.2265748354105940e-06 -4.9198364350274208e-10 0.0000000000000000e+00  -4.6028937567593178e-06 -2.0278457187352980e-10 0.0000000000000000e+00  -6.2741489556611097e-06 8.0038366002524581e-10 0.0000000000000000e+00  -2.2755962253384846e-06 1.0909689641175081e-09 0.0000000000000000e+00  -6.9280838736305475e-06 -1.3281150348791233e-09 0.0000000000000000e+00  -7.0864678389492913e-06 -4.0792422532386998e-10 0.0000000000000000e+00  4.7824939932532627e-07 3.1886006013191797e-10 0.0000000000000000e+00  -1.0283795249589243e-05 -4.5029718808844392e-09 0.0000000000000000e+00  </DataArray> 
</PointData> 
</Piece>
</UnstructuredGrid>
</VTKFile>