<?xml version="1.0"?>
<VTKFile type="UnstructuredGrid"  version="0.1"  >
<UnstructuredGrid>
<Piece  NumberOfPoints="81" NumberOfCells="128">
<Points>
<DataArray  type="Float64"  NumberOfComponents="3"  format="ascii">0 0 0  0.275 0 0  0.55 0 0  0.8250000000000001 0 0  1.1 0 0  1.375 0 0  1.65 0 0  1.925 0 0  2.2 0 0  0 0.05125 0  0.275 0.05125 0  0.55 0.05125 0  0.8250000000000001 0.05125 0  1.1 0.05125 0  1.375 0.05125 0  1.65 0.05125 0  1.925 0.05125 0  2.2 0.05125 0  0 0.1025 0  0.275 0.1025 0  0.55 0.1025 0  0.8250000000000001 0.1025 0  1.1 0.1025 0  1.375 0.1025 0  1.65 0.1025 0  1.925 0.1025 0  2.2 0.1025 0  0 0.15375 0  0.275 0.15375 0  0.55 0.15375 0  0.8250000000000001 0.15375 0  1.1 0.15375 0  1.375 0.15375 0  1.65 0.15375 0  1.925 0.15375 0  2.2 0.15375 0  0 0.205 0  0.275 0.205 0  0.55 0.205 0  0.8250000000000001 0.205 0  1.1 0.205 0  1.375 0.205 0  1.65 0.205 0  1.925 0.205 0  2.2 0.205 0  0 0.25625 0  0.275 0.25625 0  0.55 0.25625 0  0.8250000000000001 0.25625 0  1.1 0.25625 0  1.375 0.25625 0  1.65 0.25625 0  1.925 0.25625 0  2.2 0.25625 0  0 0.3075 0  0.275 0.3075 0  0.55 0.3075 0  0.8250000000000001 0.3075 0  1.1 0.3075 0  1.375 0.3075 0  1.65 0.3075 0  1.925 0.3075 0  2.2 0.3075 0  0 0.35875 0  0.275 0.35875 0  0.55 0.35875 0  0.8250000000000001 0.35875 0  1.1 0.35875 0  1.375 0.35875 0  1.65 0.35875 0  1.925 0.35875 0  2.2 0.35875 0  0 0.41 0  0.275 0.41 0  0.55 0.41 0  0.8250000000000001 0.41 0  1.1 0.41 0  1.375 0.41 0  1.65 0.41 0  1.925 0.41 0  2.2 0.41 0  </DataArray>
</Points>
<Cells>
<DataArray  type="UInt32"  Name="connectivity"  format="ascii">0 1 9  1 9 10  1 2 11  1 10 11  2 3 11  3 11 12  3 4 13  3 12 13  4 5 13  5 13 14  5 6 15  5 14 15  6 7 15  7 15 16  7 8 17  7 16 17  9 10 19  9 18 19  10 11 19  11 19 20  11 12 21  11 20 21  12 13 21  13 21 22  13 14 23  13 22 23  14 15 23  15 23 24  15 16 25  15 24 25  16 17 25  17 25 26  18 19 27  19 27 28  19 20 29  19 28 29  20 21 29  21 29 30  21 22 31  21 30 31  22 23 31  23 31 32  23 24 33  23 32 33  24 25 33  25 33 34  25 26 35  25 34 35  27 28 37  27 36 37  28 29 37  29 37 38  29 30 39  29 38 39  30 31 39  31 39 40  31 32 41  31 40 41  32 33 41  33 41 42  33 34 43  33 42 43  34 35 43  35 43 44  36 37 45  37 45 46  37 38 47  37 46 47  38 39 47  39 47 48  39 40 49  39 48 49  40 41 49  41 49 50  41 42 51  41 50 51  42 43 51  43 51 52  43 44 53  43 52 53  45 46 55  45 54 55  46 47 55  47 55 56  47 48 57  47 56 57  48 49 57  49 57 58  49 50 59  49 58 59  50 51 59  51 59 60  51 52 61  51 60 61  52 53 61  53 61 62  54 55 63  55 63 64  55 56 65  55 64 65  56 57 65  57 65 66  57 58 67  57 66 67  58 59 67  59 67 68  59 60 69  59 68 69  60 61 69  61 69 70  61 62 71  61 70 71  63 64 73  63 72 73  64 65 73  65 73 74  65 66 75  65 74 75  66 67 75  67 75 76  67 68 77  67 76 77  68 69 77  69 77 78  69 70 79  69 78 79  70 71 79  71 79 80  </DataArray>
<DataArray  type="UInt32"  Name="offsets"  format="ascii">3 6 9 12 15 18 21 24 27 30 33 36 39 42 45 48 51 54 57 60 63 66 69 72 75 78 81 84 87 90 93 96 99 102 105 108 111 114 117 120 123 126 129 132 135 138 141 144 147 150 153 156 159 162 165 168 171 174 177 180 183 186 189 192 195 198 201 204 207 210 213 216 219 222 225 228 231 234 237 240 243 246 249 252 255 258 261 264 267 270 273 276 279 282 285 288 291 294 297 300 303 306 309 312 315 318 321 324 327 330 333 336 339 342 345 348 351 354 357 360 363 366 369 372 375 378 381 384 </DataArray>
<DataArray  type="UInt8"  Name="types"  format="ascii">5 5 5 5 5 5 5 5 5 5 5 5 5 5 5 5 5 5 5 5 5 5 5 5 5 5 5 5 5 5 5 5 5 5 5 5 5 5 5 5 5 5 5 5 5 5 5 5 5 5 5 5 5 5 5 5 5 5 5 5 5 5 5 5 5 5 5 5 5 5 5 5 5 5 5 5 5 5 5 5 5 5 5 5 5 5 5 5 5 5 5 5 5 5 5 5 5 5 5 5 5 5 5 5 5 5 5 5 5 5 5 5 5 5 5 5 5 5 5 5 5 5 5 5 5 5 5 5 </DataArray>
</Cells>
<PointData  Vectors="f_16"> 
<DataArray  type="Float64"  Name="f_16"  NumberOfComponents="3" format="ascii">2.1198818963226088e-05 -7.6491770212686910e-08 0.0000000000000000e+00  -1.0291244546872537e-06 -4.1269770219609522e-08 0.0000000000000000e+00  1.7191268809204526e-06 -1.0056830116654773e-07 0.0000000000000000e+00  -8.5497935438233074e-06 1.0962606258030001e-07 0.0000000000000000e+00  -4.0261798895787309e-06 5.6384430105692191e-08 0.0000000000000000e+00  -5.6833634745824156e-06 1.0268775613431159e-07 0.0000000000000000e+00  -7.4960160838204123e-06 4.6670387507944669e-08 0.0000000000000000e+00  -6.7457015691707133e-06 -1.3000228098774819e-07 0.0000000000000000e+00  -3.6758922381642759e-06 2.6631371479379135e-08 0.0000000000000000e+00  6.5624711359571963e-01 2.7035224072808903e-08 0.0000000000000000e+00  6.6277047374410136e-01 -1.6513302345656817e-03 0.0000000000000000e+00  6.7212082745849111e-01 -3.0144897463654863e-03 0.0000000000000000e+00  7.1893414052294702e-01 -1.0123934113707021e-02 0.0000000000000000e+00  8.3706118888890657e-01 -1.6746416299226300e-02 0.0000000000000000e+00  9.2526327899927696e-01 -3.9431713043378575e-03 0.0000000000000000e+00  9.0794311389791282e-01 5.3797611060131360e-03 0.0000000000000000e+00  9.2156848482331777e-01 -4.7565461803225281e-03 0.0000000000000000e+00  8.9711584650151432e-01 8.6106019211725122e-03 0.0000000000000000e+00  1.1249842596968855e+00 2.9729393703647512e-08 0.0000000000000000e+00  1.1279607052898415e+00 -1.3461435215471466e-03 0.0000000000000000e+00  1.1230232281635615e+00 -1.0806484724737240e-03 0.0000000000000000e+00  1.1089086242630635e+00 -2.0359834682546551e-02 0.0000000000000000e+00  1.1054055528064777e+00 -3.6581203836439570e-02 0.0000000000000000e+00  1.1718415887984779e+00 -5.6562170473603308e-03 0.0000000000000000e+00  1.1872190720469515e+00 6.8047131976685816e-03 0.0000000000000000e+00  1.1713595349062156e+00 -1.3194324611480653e-02 0.0000000000000000e+00  1.1808843076827320e+00 1.0187657310532590e-02 0.0000000000000000e+00  1.4062397222915519e+00 -8.5517130550234147e-09 0.0000000000000000e+00  1.4077009503905682e+00 8.3286240716152148e-04 0.0000000000000000e+00  1.3994839103747512e+00 1.2850245165101368e-03 0.0000000000000000e+00  1.3603479589382943e+00 -1.5389742470414688e-02 0.0000000000000000e+00  1.2960247265987743e+00 -2.6281994686350198e-02 0.0000000000000000e+00  1.2066389253117245e+00 -1.0396466716175933e-02 0.0000000000000000e+00  1.2140036037866049e+00 4.4942524190989550e-03 0.0000000000000000e+00  1.1954148764024806e+00 -4.1118920162306581e-03 0.0000000000000000e+00  1.2131432586660911e+00 9.1531823224369584e-03 0.0000000000000000e+00  1.4999818623750794e+00 -3.8052265091759659e-08 0.0000000000000000e+00  1.5082626298354536e+00 -1.5829030338741635e-04 0.0000000000000000e+00  1.4870645723098457e+00 -6.6393022264011624e-05 0.0000000000000000e+00  1.4491424017361527e+00 5.3770704008701467e-06 0.0000000000000000e+00  1.3639447618284450e+00 -5.9692266694708097e-05 0.0000000000000000e+00  1.2163162330829902e+00 7.4349573219598133e-05 0.0000000000000000e+00  1.2145165293186666e+00 1.1578220879091065e-04 0.0000000000000000e+00  1.1938101596669868e+00 2.4821652665026902e-04 0.0000000000000000e+00  1.2138551290736190e+00 3.3728049254849297e-05 0.0000000000000000e+00  1.4062365403857557e+00 -3.4448111451236385e-08 0.0000000000000000e+00  1.4076564822327300e+00 -9.9160277903299508e-04 0.0000000000000000e+00  1.3988440793579053e+00 -1.4236852307078591e-03 0.0000000000000000e+00  1.3608519234338237e+00 1.5314574917329018e-02 0.0000000000000000e+00  1.2954734874279787e+00 2.6228798631062051e-02 0.0000000000000000e+00  1.2043396559926283e+00 1.0440611238251511e-02 0.0000000000000000e+00  1.2154053180726392e+00 -4.4059026042434979e-03 0.0000000000000000e+00  1.1948876263393613e+00 4.3635752735818427e-03 0.0000000000000000e+00  1.2124507637473849e+00 -9.3484352286080166e-03 0.0000000000000000e+00  1.1249859836098872e+00 -5.2219196421765824e-08 0.0000000000000000e+00  1.1276548279566057e+00 9.0573853262827060e-04 0.0000000000000000e+00  1.1243291459729765e+00 1.0036556705616784e-03 0.0000000000000000e+00  1.1076944326729283e+00 2.0319754815078458e-02 0.0000000000000000e+00  1.1049023774157103e+00 3.6642243549639922e-02 0.0000000000000000e+00  1.1721769027248763e+00 5.6794915690701348e-03 0.0000000000000000e+00  1.1852545129323444e+00 -6.6993555810962221e-03 0.0000000000000000e+00  1.1718763110216002e+00 1.3554698438725223e-02 0.0000000000000000e+00  1.1802499525317254e+00 -1.0015247362802930e-02 0.0000000000000000e+00  6.5624172668320191e-01 -3.6415387442919490e-08 0.0000000000000000e+00  6.6141622399199052e-01 1.5243461441392400e-03 0.0000000000000000e+00  6.7062365441657779e-01 3.0337460297137275e-03 0.0000000000000000e+00  7.1781325178100841e-01 1.0116152979306481e-02 0.0000000000000000e+00  8.3626185692820476e-01 1.6688939929186169e-02 0.0000000000000000e+00  9.2370756813357591e-01 3.9560055065097450e-03 0.0000000000000000e+00  9.0791400026913938e-01 -5.2649946429638170e-03 0.0000000000000000e+00  9.1942697633669446e-01 4.8173906851776077e-03 0.0000000000000000e+00  8.9810481060868363e-01 -8.3756845298332914e-03 0.0000000000000000e+00  -6.7522552967738003e-06 2.7100986600513528e-08 0.0000000000000000e+00  -7.0712654808160566e-06 2.4928371009437385e-08 0.0000000000000000e+00  -4.1160956284917400e-06 1.0465287154633416e-07 0.0000000000000000e+00  -5.7545506170096763e-06 -4.3868595026781270e-08 0.0000000000000000e+00  -3.0158399922203393e-06 -1.3253073354629879e-07 0.0000000000000000e+00  -7.6171399009249123e-06 -1.9442207003258822e-07 0.0000000000000000e+00  -8.4907019983748457e-06 -1.7811850514996627e-07 0.0000000000000000e+00  1.5372538574200857e-06 1.1377663461522418e-07 0.0000000000000000e+00  -1.1087085666055300e-05 4.9151059716570686e-09 0.0000000000000000e+00  </DataArray> 
</PointData> 
</Piece>
</UnstructuredGrid>
</VTKFile>