<?xml version="1.0"?>
<VTKFile type="UnstructuredGrid"  version="0.1"  >
<UnstructuredGrid>
<Piece  NumberOfPoints="81" NumberOfCells="128">
<Points>
<DataArray  type="Float64"  NumberOfComponents="3"  format="ascii">0 0 0  0.275 0 0  0.55 0 0  0.8250000000000001 0 0  1.1 0 0  1.375 0 0  1.65 0 0  1.925 0 0  2.2 0 0  0 0.05125 0  0.275 0.05125 0  0.55 0.05125 0  0.8250000000000001 0.05125 0  1.1 0.05125 0  1.375 0.05125 0  1.65 0.05125 0  1.925 0.05125 0  2.2 0.05125 0  0 0.1025 0  0.275 0.1025 0  0.55 0.1025 0  0.8250000000000001 0.1025 0  1.1 0.1025 0  1.375 0.1025 0  1.65 0.1025 0  1.925 0.1025 0  2.2 0.1025 0  0 0.15375 0  0.275 0.15375 0  0.55 0.15375 0  0.8250000000000001 0.15375 0  1.1 0.15375 0  1.375 0.15375 0  1.65 0.15375 0  1.925 0.15375 0  2.2 0.15375 0  0 0.205 0  0.275 0.205 0  0.55 0.205 0  0.8250000000000001 0.205 0  1.1 0.205 0  1.375 0.205 0  1.65 0.205 0  1.925 0.205 0  2.2 0.205 0  0 0.25625 0  0.275 0.25625 0  0.55 0.25625 0  0.8250000000000001 0.25625 0  1.1 0.25625 0  1.375 0.25625 0  1.65 0.25625 0  1.925 0.25625 0  2.2 0.25625 0  0 0.3075 0  0.275 0.3075 0  0.55 0.3075 0  0.8250000000000001 0.3075 0  1.1 0.3075 0  1.375 0.3075 0  1.65 0.3075 0  1.925 0.3075 0  2.2 0.3075 0  0 0.35875 0  0.275 0.35875 0  0.55 0.35875 0  0.8250000000000001 0.35875 0  1.1 0.35875 0  1.375 0.35875 0  1.65 0.35875 0  1.925 0.35875 0  2.2 0.35875 0  0 0.41 0  0.275 0.41 0  0.55 0.41 0  0.8250000000000001 0.41 0  1.1 0.41 0  1.375 0.41 0  1.65 0.41 0  1.925 0.41 0  2.2 0.41 0  </DataArray>
</Points>
<Cells>
<DataArray  type="UInt32"  Name="connectivity"  format="ascii">0 1 9  1 9 10  1 2 11  1 10 11  2 3 11  3 11 12  3 4 13  3 12 13  4 5 13  5 13 14  5 6 15  5 14 15  6 7 15  7 15 16  7 8 17  7 16 17  9 10 19  9 18 19  10 11 19  11 19 20  11 12 21  11 20 21  12 13 21  13 21 22  13 14 23  13 22 23  14 15 23  15 23 24  15 16 25  15 24 25  16 17 25  17 25 26  18 19 27  19 27 28  19 20 29  19 28 29  20 21 29  21 29 30  21 22 31  21 30 31  22 23 31  23 31 32  23 24 33  23 32 33  24 25 33  25 33 34  25 26 35  25 34 35  27 28 37  27 36 37  28 29 37  29 37 38  29 30 39  29 38 39  30 31 39  31 39 40  31 32 41  31 40 41  32 33 41  33 41 42  33 34 43  33 42 43  34 35 43  35 43 44  36 37 45  37 45 46  37 38 47  37 46 47  38 39 47  39 47 48  39 40 49  39 48 49  40 41 49  41 49 50  41 42 51  41 50 51  42 43 51  43 51 52  43 44 53  43 52 53  45 46 55  45 54 55  46 47 55  47 55 56  47 48 57  47 56 57  48 49 57  49 57 58  49 50 59  49 58 59  50 51 59  51 59 60  51 52 61  51 60 61  52 53 61  53 61 62  54 55 63  55 63 64  55 56 65  55 64 65  56 57 65  57 65 66  57 58 67  57 66 67  58 59 67  59 67 68  59 60 69  59 68 69  60 61 69  61 69 70  61 62 71  61 70 71  63 64 73  63 72 73  64 65 73  65 73 74  65 66 75  65 74 75  66 67 75  67 75 76  67 68 77  67 76 77  68 69 77  69 77 78  69 70 79  69 78 79  70 71 79  71 79 80  </DataArray>
<DataArray  type="UInt32"  Name="offsets"  format="ascii">3 6 9 12 15 18 21 24 27 30 33 36 39 42 45 48 51 54 57 60 63 66 69 72 75 78 81 84 87 90 93 96 99 102 105 108 111 114 117 120 123 126 129 132 135 138 141 144 147 150 153 156 159 162 165 168 171 174 177 180 183 186 189 192 195 198 201 204 207 210 213 216 219 222 225 228 231 234 237 240 243 246 249 252 255 258 261 264 267 270 273 276 279 282 285 288 291 294 297 300 303 306 309 312 315 318 321 324 327 330 333 336 339 342 345 348 351 354 357 360 363 366 369 372 375 378 381 384 </DataArray>
<DataArray  type="UInt8"  Name="types"  format="ascii">5 5 5 5 5 5 5 5 5 5 5 5 5 5 5 5 5 5 5 5 5 5 5 5 5 5 5 5 5 5 5 5 5 5 5 5 5 5 5 5 5 5 5 5 5 5 5 5 5 5 5 5 5 5 5 5 5 5 5 5 5 5 5 5 5 5 5 5 5 5 5 5 5 5 5 5 5 5 5 5 5 5 5 5 5 5 5 5 5 5 5 5 5 5 5 5 5 5 5 5 5 5 5 5 5 5 5 5 5 5 5 5 5 5 5 5 5 5 5 5 5 5 5 5 5 5 5 5 </DataArray>
</Cells>
<PointData  Vectors="f_16"> 
<DataArray  type="Float64"  Name="f_16"  NumberOfComponents="3" format="ascii">2.0489483908677252e-05 -4.0531732318467751e-09 0.0000000000000000e+00  -1.1997094468985909e-06 -2.9841329392893382e-10 0.0000000000000000e+00  1.0461049118254393e-06 -1.0142145040403386e-09 0.0000000000000000e+00  -8.2952192523212522e-06 1.3719886157239876e-09 0.0000000000000000e+00  -2.9452221669480195e-06 -7.9935554167330935e-10 0.0000000000000000e+00  -4.7709314892183724e-06 -4.7860232965449392e-11 0.0000000000000000e+00  -5.1846406220335413e-06 2.9352350099862429e-09 0.0000000000000000e+00  -5.9158592051259882e-06 4.3136021204870663e-09 0.0000000000000000e+00  -1.2110069389664795e-06 1.9808207797903378e-09 0.0000000000000000e+00  6.5624702321210326e-01 -2.2522331442120575e-11 0.0000000000000000e+00  6.5715028163622313e-01 -1.2411203854413106e-04 0.0000000000000000e+00  6.5851500315186773e-01 1.3278651036569724e-04 0.0000000000000000e+00  6.5824069257576678e-01 -3.3907563130941867e-05 0.0000000000000000e+00  6.5898410378208150e-01 -5.1492773992487805e-05 0.0000000000000000e+00  6.5864210077006757e-01 8.9757754157850211e-05 0.0000000000000000e+00  6.5861428299136360e-01 -3.9773353650589384e-05 0.0000000000000000e+00  6.5813385604714347e-01 -5.0850678798628088e-05 0.0000000000000000e+00  6.6157229853614286e-01 -1.2051287568194857e-03 0.0000000000000000e+00  1.1249841003444383e+00 -1.2515496804372722e-10 0.0000000000000000e+00  1.1256588046740394e+00 -6.2276368967773346e-04 0.0000000000000000e+00  1.1238732587814582e+00 -1.6382905937104789e-04 0.0000000000000000e+00  1.1266521817731259e+00 -1.9143199394151987e-04 0.0000000000000000e+00  1.1257488946373182e+00 3.3720234971416716e-05 0.0000000000000000e+00  1.1253739965896221e+00 3.5412651696398211e-04 0.0000000000000000e+00  1.1250269338227972e+00 6.5297213315274267e-05 0.0000000000000000e+00  1.1249370651439945e+00 1.0869267394285180e-04 0.0000000000000000e+00  1.1241769502009398e+00 -1.0140359052714543e-03 0.0000000000000000e+00  1.4062394818582220e+00 -1.3953699197880416e-09 0.0000000000000000e+00  1.4054726850156012e+00 -1.4195270011711206e-04 0.0000000000000000e+00  1.4067566258485187e+00 -1.6931693456630927e-04 0.0000000000000000e+00  1.4049467146241648e+00 -2.2312493388797552e-04 0.0000000000000000e+00  1.4073381207284934e+00 -8.9127192593845347e-05 0.0000000000000000e+00  1.4058542244802881e+00 1.9324926906090669e-04 0.0000000000000000e+00  1.4055909921077985e+00 6.2246210311376590e-05 0.0000000000000000e+00  1.4057251039352616e+00 8.1410505848910700e-05 0.0000000000000000e+00  1.4035825135601709e+00 -5.7760390606581102e-04 0.0000000000000000e+00  1.4999818400315239e+00 8.3699429651150302e-10 0.0000000000000000e+00  1.4998916883232105e+00 -1.5474165108817124e-04 0.0000000000000000e+00  1.4988186197261115e+00 -1.8107111730668421e-04 0.0000000000000000e+00  1.5000147990360566e+00 -1.2128915096905235e-04 0.0000000000000000e+00  1.4973362881755707e+00 -5.0647451956183841e-05 0.0000000000000000e+00  1.4989148543837598e+00 1.0815995482978892e-04 0.0000000000000000e+00  1.4984078995191261e+00 3.0173489209136357e-04 0.0000000000000000e+00  1.4982660923803346e+00 4.6520920348515452e-04 0.0000000000000000e+00  1.4956856989312426e+00 3.2575964310466437e-04 0.0000000000000000e+00  1.4062361169632580e+00 1.9573738664692700e-09 0.0000000000000000e+00  1.4053852536169837e+00 -7.3638425997025350e-05 0.0000000000000000e+00  1.4058548255377739e+00 -2.1343231789468123e-04 0.0000000000000000e+00  1.4051833388927644e+00 -3.9492055639622088e-05 0.0000000000000000e+00  1.4066376364701241e+00 -1.7297348399901159e-06 0.0000000000000000e+00  1.4035076442778314e+00 1.0269059832357053e-07 0.0000000000000000e+00  1.4065944943778366e+00 3.4600307121416060e-04 0.0000000000000000e+00  1.4054087659443266e+00 4.8613338543476036e-04 0.0000000000000000e+00  1.4032388369525932e+00 1.0048064848316705e-03 0.0000000000000000e+00  1.1249860129131846e+00 1.2401369161125906e-09 0.0000000000000000e+00  1.1253882634096939e+00 1.9528616876303274e-04 0.0000000000000000e+00  1.1248947211643066e+00 -6.1629123774193588e-05 0.0000000000000000e+00  1.1246979790094578e+00 -7.7975763766463128e-06 0.0000000000000000e+00  1.1242438507111072e+00 -2.9961889857899176e-05 0.0000000000000000e+00  1.1250436577668379e+00 -1.5479474514886005e-04 0.0000000000000000e+00  1.1226400259428260e+00 3.1574413487727462e-04 0.0000000000000000e+00  1.1256454505744815e+00 5.4163742952110941e-04 0.0000000000000000e+00  1.1243373438147970e+00 1.6266359545517796e-03 0.0000000000000000e+00  6.5624144084554392e-01 -5.4918084845139601e-10 0.0000000000000000e+00  6.5590327388930880e-01 1.8672158191596649e-05 0.0000000000000000e+00  6.5668897377528035e-01 -2.0283792120148300e-04 0.0000000000000000e+00  6.5626228659582175e-01 -1.5995045692987339e-05 0.0000000000000000e+00  6.5693177774274059e-01 1.6483152124573770e-05 0.0000000000000000e+00  6.5587800030802224e-01 -7.0852323122685508e-06 0.0000000000000000e+00  6.5837136471727498e-01 2.6746515106529107e-04 0.0000000000000000e+00  6.5662571101738110e-01 2.5019234664573625e-04 0.0000000000000000e+00  6.6399216264155703e-01 1.6946489033864173e-03 0.0000000000000000e+00  -7.0288300675027889e-06 -1.3526479528226726e-09 0.0000000000000000e+00  -7.2254166319970613e-06 -3.5328019403190238e-10 0.0000000000000000e+00  -4.6008137456335979e-06 -3.9355510976891998e-10 0.0000000000000000e+00  -6.2778013939523629e-06 2.8021619159561949e-10 0.0000000000000000e+00  -2.2805452142535927e-06 2.1740656890931327e-09 0.0000000000000000e+00  -6.9277772436379891e-06 -1.8135483046889625e-09 0.0000000000000000e+00  -7.0800924022571418e-06 -1.5724637352523291e-09 0.0000000000000000e+00  4.9027966160039475e-07 2.3042533606645525e-10 0.0000000000000000e+00  -1.0262290962555367e-05 -9.2402221180732942e-09 0.0000000000000000e+00  </DataArray> 
</PointData> 
</Piece>
</UnstructuredGrid>
</VTKFile>