<?xml version="1.0"?>
<VTKFile type="UnstructuredGrid"  version="0.1"  >
<UnstructuredGrid>
<Piece  NumberOfPoints="81" NumberOfCells="128">
<Points>
<DataArray  type="Float64"  NumberOfComponents="3"  format="ascii">0 0 0  0.275 0 0  0.55 0 0  0.8250000000000001 0 0  1.1 0 0  1.375 0 0  1.65 0 0  1.925 0 0  2.2 0 0  0 0.05125 0  0.275 0.05125 0  0.55 0.05125 0  0.8250000000000001 0.05125 0  1.1 0.05125 0  1.375 0.05125 0  1.65 0.05125 0  1.925 0.05125 0  2.2 0.05125 0  0 0.1025 0  0.275 0.1025 0  0.55 0.1025 0  0.8250000000000001 0.1025 0  1.1 0.1025 0  1.375 0.1025 0  1.65 0.1025 0  1.925 0.1025 0  2.2 0.1025 0  0 0.15375 0  0.275 0.15375 0  0.55 0.15375 0  0.8250000000000001 0.15375 0  1.1 0.15375 0  1.375 0.15375 0  1.65 0.15375 0  1.925 0.15375 0  2.2 0.15375 0  0 0.205 0  0.275 0.205 0  0.55 0.205 0  0.8250000000000001 0.205 0  1.1 0.205 0  1.375 0.205 0  1.65 0.205 0  1.925 0.205 0  2.2 0.205 0  0 0.25625 0  0.275 0.25625 0  0.55 0.25625 0  0.8250000000000001 0.25625 0  1.1 0.25625 0  1.375 0.25625 0  1.65 0.25625 0  1.925 0.25625 0  2.2 0.25625 0  0 0.3075 0  0.275 0.3075 0  0.55 0.3075 0  0.8250000000000001 0.3075 0  1.1 0.3075 0  1.375 0.3075 0  1.65 0.3075 0  1.925 0.3075 0  2.2 0.3075 0  0 0.35875 0  0.275 0.35875 0  0.55 0.35875 0  0.8250000000000001 0.35875 0  1.1 0.35875 0  1.375 0.35875 0  1.65 0.35875 0  1.925 0.35875 0  2.2 0.35875 0  0 0.41 0  0.275 0.41 0  0.55 0.41 0  0.8250000000000001 0.41 0  1.1 0.41 0  1.375 0.41 0  1.65 0.41 0  1.925 0.41 0  2.2 0.41 0  </DataArray>
</Points>
<Cells>
<DataArray  type="UInt32"  Name="connectivity"  format="ascii">0 1 9  1 9 10  1 2 11  1 10 11  2 3 11  3 11 12  3 4 13  3 12 13  4 5 13  5 13 14  5 6 15  5 14 15  6 7 15  7 15 16  7 8 17  7 16 17  9 10 19  9 18 19  10 11 19  11 19 20  11 12 21  11 20 21  12 13 21  13 21 22  13 14 23  13 22 23  14 15 23  15 23 24  15 16 25  15 24 25  16 17 25  17 25 26  18 19 27  19 27 28  19 20 29  19 28 29  20 21 29  21 29 30  21 22 31  21 30 31  22 23 31  23 31 32  23 24 33  23 32 33  24 25 33  25 33 34  25 26 35  25 34 35  27 28 37  27 36 37  28 29 37  29 37 38  29 30 39  29 38 39  30 31 39  31 39 40  31 32 41  31 40 41  32 33 41  33 41 42  33 34 43  33 42 43  34 35 43  35 43 44  36 37 45  37 45 46  37 38 47  37 46 47  38 39 47  39 47 48  39 40 49  39 48 49  40 41 49  41 49 50  41 42 51  41 50 51  42 43 51  43 51 52  43 44 53  43 52 53  45 46 55  45 54 55  46 47 55  47 55 56  47 48 57  47 56 57  48 49 57  49 57 58  49 50 59  49 58 59  50 51 59  51 59 60  51 52 61  51 60 61  52 53 61  53 61 62  54 55 63  55 63 64  55 56 65  55 64 65  56 57 65  57 65 66  57 58 67  57 66 67  58 59 67  59 67 68  59 60 69  59 68 69  60 61 69  61 69 70  61 62 71  61 70 71  63 64 73  63 72 73  64 65 73  65 73 74  65 66 75  65 74 75  66 67 75  67 75 76  67 68 77  67 76 77  68 69 77  69 77 78  69 70 79  69 78 79  70 71 79  71 79 80  </DataArray>
<DataArray  type="UInt32"  Name="offsets"  format="ascii">3 6 9 12 15 18 21 24 27 30 33 36 39 42 45 48 51 54 57 60 63 66 69 72 75 78 81 84 87 90 93 96 99 102 105 108 111 114 117 120 123 126 129 132 135 138 141 144 147 150 153 156 159 162 165 168 171 174 177 180 183 186 189 192 195 198 201 204 207 210 213 216 219 222 225 228 231 234 237 240 243 246 249 252 255 258 261 264 267 270 273 276 279 282 285 288 291 294 297 300 303 306 309 312 315 318 321 324 327 330 333 336 339 342 345 348 351 354 357 360 363 366 369 372 375 378 381 384 </DataArray>
<DataArray  type="UInt8"  Name="types"  format="ascii">5 5 5 5 5 5 5 5 5 5 5 5 5 5 5 5 5 5 5 5 5 5 5 5 5 5 5 5 5 5 5 5 5 5 5 5 5 5 5 5 5 5 5 5 5 5 5 5 5 5 5 5 5 5 5 5 5 5 5 5 5 5 5 5 5 5 5 5 5 5 5 5 5 5 5 5 5 5 5 5 5 5 5 5 5 5 5 5 5 5 5 5 5 5 5 5 5 5 5 5 5 5 5 5 5 5 5 5 5 5 5 5 5 5 5 5 5 5 5 5 5 5 5 5 5 5 5 5 </DataArray>
</Cells>
<PointData  Vectors="f_16"> 
<DataArray  type="Float64"  Name="f_16"  NumberOfComponents="3" format="ascii">2.0488066388205867e-05 -3.7811999104439734e-09 0.0000000000000000e+00  -1.2075213018552013e-06 -2.7835534790192402e-09 0.0000000000000000e+00  1.0791530376695192e-06 -4.6543134085505433e-09 0.0000000000000000e+00  -8.2336934861971130e-06 5.5993450922489795e-09 0.0000000000000000e+00  -2.9239384036601374e-06 8.2997311705114208e-10 0.0000000000000000e+00  -4.7630662833504844e-06 1.9546864116937159e-08 0.0000000000000000e+00  -5.4195242172278227e-06 2.6960236520138571e-08 0.0000000000000000e+00  -6.1375031826664650e-06 4.7550782858198625e-08 0.0000000000000000e+00  -1.8688985572150762e-06 4.9084857831825797e-08 0.0000000000000000e+00  6.5624703777986459e-01 1.5872490087449034e-09 0.0000000000000000e+00  6.5713929051085418e-01 -8.9363365251491790e-05 0.0000000000000000e+00  6.5868810013668178e-01 5.2959841627314518e-05 0.0000000000000000e+00  6.5842147932604855e-01 -1.8923622636390976e-04 0.0000000000000000e+00  6.5913967317855726e-01 -2.1176332402908540e-04 0.0000000000000000e+00  6.6314508458195554e-01 -7.6431480512298433e-04 0.0000000000000000e+00  6.7974151285658513e-01 -4.0765692275466234e-03 0.0000000000000000e+00  7.1978151882803987e-01 -5.3813406684354833e-03 0.0000000000000000e+00  7.6767640583456132e-01 -4.7745574008340157e-03 0.0000000000000000e+00  1.1249841521053323e+00 -1.8693876189217871e-09 0.0000000000000000e+00  1.1265148218973235e+00 -6.7645840790725930e-04 0.0000000000000000e+00  1.1234627080262602e+00 -3.1595537480418571e-04 0.0000000000000000e+00  1.1263296190348648e+00 -5.3035827855535378e-04 0.0000000000000000e+00  1.1251099786846799e+00 -6.8287616113373758e-05 0.0000000000000000e+00  1.1235646103882908e+00 -5.8195283248826046e-04 0.0000000000000000e+00  1.1231176200292039e+00 -6.3664694216205818e-03 0.0000000000000000e+00  1.1254006064581854e+00 -1.2095446125141357e-02 0.0000000000000000e+00  1.1414320415045605e+00 -1.2779631649062699e-02 0.0000000000000000e+00  1.4062396088241809e+00 -4.0140815966198389e-09 0.0000000000000000e+00  1.4053741205890724e+00 -3.6414070143159990e-06 0.0000000000000000e+00  1.4069646562667257e+00 -4.0516220824204300e-04 0.0000000000000000e+00  1.4060665146663509e+00 -2.2349155120768199e-04 0.0000000000000000e+00  1.4082533663369778e+00 2.2527898688135792e-04 0.0000000000000000e+00  1.4028676010069137e+00 -8.8899852305235143e-04 0.0000000000000000e+00  1.3913033170212397e+00 -4.2809768082898826e-03 0.0000000000000000e+00  1.3621821553327567e+00 -8.5339161532121503e-03 0.0000000000000000e+00  1.3223733055233347e+00 -9.8893379074835308e-03 0.0000000000000000e+00  1.4999818894119479e+00 6.6686409264858035e-10 0.0000000000000000e+00  1.5006049099337511e+00 -1.5258150336969778e-04 0.0000000000000000e+00  1.4984873649444785e+00 -1.6550291531781095e-04 0.0000000000000000e+00  1.5040106456423621e+00 -9.7373427152004256e-05 0.0000000000000000e+00  1.4974276599740803e+00 -6.8369042456382120e-06 0.0000000000000000e+00  1.4954326890148864e+00 1.7462879397010407e-04 0.0000000000000000e+00  1.4804672813070565e+00 2.3540126945723560e-04 0.0000000000000000e+00  1.4438888781718846e+00 2.1313636304884183e-04 0.0000000000000000e+00  1.3856917209790218e+00 3.8260725972753451e-06 0.0000000000000000e+00  1.4062362549468177e+00 4.7758192673741706e-09 0.0000000000000000e+00  1.4053006435804214e+00 -2.0852162585673911e-04 0.0000000000000000e+00  1.4060805352809580e+00 3.1076026127796052e-05 0.0000000000000000e+00  1.4063400196031048e+00 4.3514888613771642e-06 0.0000000000000000e+00  1.4077009874158557e+00 -2.3553911241489602e-04 0.0000000000000000e+00  1.4007405248135252e+00 1.1492268181335817e-03 0.0000000000000000e+00  1.3925885695016715e+00 4.6595333247225453e-03 0.0000000000000000e+00  1.3618995512365468e+00 8.6824307649529461e-03 0.0000000000000000e+00  1.3214563391415435e+00 9.6734234671261715e-03 0.0000000000000000e+00  1.1249860449907276e+00 5.1786982566277584e-09 0.0000000000000000e+00  1.1262189418413915e+00 2.4241073065503886e-04 0.0000000000000000e+00  1.1245277580401143e+00 1.0210243153192503e-04 0.0000000000000000e+00  1.1244494577194448e+00 3.5425944459446579e-04 0.0000000000000000e+00  1.1238259378561561e+00 1.2290706963898320e-04 0.0000000000000000e+00  1.1236799875644881e+00 8.5663750389202299e-04 0.0000000000000000e+00  1.1212236176112391e+00 6.6631951938669869e-03 0.0000000000000000e+00  1.1260647612548358e+00 1.2406322433639060e-02 0.0000000000000000e+00  1.1403136349123342e+00 1.2994792457881564e-02 0.0000000000000000e+00  6.5624152774492372e-01 -2.0061003693717176e-09 0.0000000000000000e+00  6.5586860146135451e-01 -1.8234284373666703e-05 0.0000000000000000e+00  6.5685025653075668e-01 -1.2293466146717875e-04 0.0000000000000000e+00  6.5652349934654419e-01 1.4650194564914335e-04 0.0000000000000000e+00  6.5728810206582877e-01 1.9029401140886949e-04 0.0000000000000000e+00  6.6083902650878734e-01 8.5504720430732372e-04 0.0000000000000000e+00  6.7999015806452756e-01 4.2763891363073693e-03 0.0000000000000000e+00  7.1810760794386475e-01 5.4761214105980942e-03 0.0000000000000000e+00  7.6889011786871142e-01 5.1275251089441818e-03 0.0000000000000000e+00  -7.0281330703539984e-06 -2.9801446345334334e-09 0.0000000000000000e+00  -7.2428053468819562e-06 -7.6055506750338194e-10 0.0000000000000000e+00  -4.5812185471087801e-06 1.3202186752014419e-09 0.0000000000000000e+00  -6.2765451687124143e-06 -8.9527706604488906e-10 0.0000000000000000e+00  -2.3000102726794377e-06 2.7925972183200523e-08 0.0000000000000000e+00  -6.9143755600233126e-06 -1.4787804613091942e-08 0.0000000000000000e+00  -7.0613376467680404e-06 -2.1008306479953836e-08 0.0000000000000000e+00  6.4536399242164086e-07 1.1572162997096141e-08 0.0000000000000000e+00  -1.0454705245536995e-05 -1.1864631604908932e-07 0.0000000000000000e+00  </DataArray> 
</PointData> 
</Piece>
</UnstructuredGrid>
</VTKFile>