<?xml version="1.0"?>
<VTKFile type="UnstructuredGrid"  version="0.1"  >
<UnstructuredGrid>
<Piece  NumberOfPoints="81" NumberOfCells="128">
<Points>
<DataArray  type="Float64"  NumberOfComponents="3"  format="ascii">0 0 0  0.275 0 0  0.55 0 0  0.8250000000000001 0 0  1.1 0 0  1.375 0 0  1.65 0 0  1.925 0 0  2.2 0 0  0 0.05125 0  0.275 0.05125 0  0.55 0.05125 0  0.8250000000000001 0.05125 0  1.1 0.05125 0  1.375 0.05125 0  1.65 0.05125 0  1.925 0.05125 0  2.2 0.05125 0  0 0.1025 0  0.275 0.1025 0  0.55 0.1025 0  0.8250000000000001 0.1025 0  1.1 0.1025 0  1.375 0.1025 0  1.65 0.1025 0  1.925 0.1025 0  2.2 0.1025 0  0 0.15375 0  0.275 0.15375 0  0.55 0.15375 0  0.8250000000000001 0.15375 0  1.1 0.15375 0  1.375 0.15375 0  1.65 0.15375 0  1.925 0.15375 0  2.2 0.15375 0  0 0.205 0  0.275 0.205 0  0.55 0.205 0  0.8250000000000001 0.205 0  1.1 0.205 0  1.375 0.205 0  1.65 0.205 0  1.925 0.205 0  2.2 0.205 0  0 0.25625 0  0.275 0.25625 0  0.55 0.25625 0  0.8250000000000001 0.25625 0  1.1 0.25625 0  1.375 0.25625 0  1.65 0.25625 0  1.925 0.25625 0  2.2 0.25625 0  0 0.3075 0  0.275 0.3075 0  0.55 0.3075 0  0.8250000000000001 0.3075 0  1.1 0.3075 0  1.375 0.3075 0  1.65 0.3075 0  1.925 0.3075 0  2.2 0.3075 0  0 0.35875 0  0.275 0.35875 0  0.55 0.35875 0  0.8250000000000001 0.35875 0  1.1 0.35875 0  1.375 0.35875 0  1.65 0.35875 0  1.925 0.35875 0  2.2 0.35875 0  0 0.41 0  0.275 0.41 0  0.55 0.41 0  0.8250000000000001 0.41 0  1.1 0.41 0  1.375 0.41 0  1.65 0.41 0  1.925 0.41 0  2.2 0.41 0  </DataArray>
</Points>
<Cells>
<DataArray  type="UInt32"  Name="connectivity"  format="ascii">0 1 9  1 9 10  1 2 11  1 10 11  2 3 11  3 11 12  3 4 13  3 12 13  4 5 13  5 13 14  5 6 15  5 14 15  6 7 15  7 15 16  7 8 17  7 16 17  9 10 19  9 18 19  10 11 19  11 19 20  11 12 21  11 20 21  12 13 21  13 21 22  13 14 23  13 22 23  14 15 23  15 23 24  15 16 25  15 24 25  16 17 25  17 25 26  18 19 27  19 27 28  19 20 29  19 28 29  20 21 29  21 29 30  21 22 31  21 30 31  22 23 31  23 31 32  23 24 33  23 32 33  24 25 33  25 33 34  25 26 35  25 34 35  27 28 37  27 36 37  28 29 37  29 37 38  29 30 39  29 38 39  30 31 39  31 39 40  31 32 41  31 40 41  32 33 41  33 41 42  33 34 43  33 42 43  34 35 43  35 43 44  36 37 45  37 45 46  37 38 47  37 46 47  38 39 47  39 47 48  39 40 49  39 48 49  40 41 49  41 49 50  41 42 51  41 50 51  42 43 51  43 51 52  43 44 53  43 52 53  45 46 55  45 54 55  46 47 55  47 55 56  47 48 57  47 56 57  48 49 57  49 57 58  49 50 59  49 58 59  50 51 59  51 59 60  51 52 61  51 60 61  52 53 61  53 61 62  54 55 63  55 63 64  55 56 65  55 64 65  56 57 65  57 65 66  57 58 67  57 66 67  58 59 67  59 67 68  59 60 69  59 68 69  60 61 69  61 69 70  61 62 71  61 70 71  63 64 73  63 72 73  64 65 73  65 73 74  65 66 75  65 74 75  66 67 75  67 75 76  67 68 77  67 76 77  68 69 77  69 77 78  69 70 79  69 78 79  70 71 79  71 79 80  </DataArray>
<DataArray  type="UInt32"  Name="offsets"  format="ascii">3 6 9 12 15 18 21 24 27 30 33 36 39 42 45 48 51 54 57 60 63 66 69 72 75 78 81 84 87 90 93 96 99 102 105 108 111 114 117 120 123 126 129 132 135 138 141 144 147 150 153 156 159 162 165 168 171 174 177 180 183 186 189 192 195 198 201 204 207 210 213 216 219 222 225 228 231 234 237 240 243 246 249 252 255 258 261 264 267 270 273 276 279 282 285 288 291 294 297 300 303 306 309 312 315 318 321 324 327 330 333 336 339 342 345 348 351 354 357 360 363 366 369 372 375 378 381 384 </DataArray>
<DataArray  type="UInt8"  Name="types"  format="ascii">5 5 5 5 5 5 5 5 5 5 5 5 5 5 5 5 5 5 5 5 5 5 5 5 5 5 5 5 5 5 5 5 5 5 5 5 5 5 5 5 5 5 5 5 5 5 5 5 5 5 5 5 5 5 5 5 5 5 5 5 5 5 5 5 5 5 5 5 5 5 5 5 5 5 5 5 5 5 5 5 5 5 5 5 5 5 5 5 5 5 5 5 5 5 5 5 5 5 5 5 5 5 5 5 5 5 5 5 5 5 5 5 5 5 5 5 5 5 5 5 5 5 5 5 5 5 5 5 </DataArray>
</Cells>
<PointData  Vectors="f_16"> 
<DataArray  type="Float64"  Name="f_16"  NumberOfComponents="3" format="ascii">2.0489721888780777e-05 -4.1115827288756617e-09 0.0000000000000000e+00  -1.1990667121913242e-06 -1.5184563820182072e-10 0.0000000000000000e+00  1.0472352164554030e-06 -5.2695125026289848e-10 0.0000000000000000e+00  -8.2923576266168084e-06 3.6436759148458191e-10 0.0000000000000000e+00  -2.9368676646401217e-06 -1.9550322681598495e-09 0.0000000000000000e+00  -4.7683533525640148e-06 3.1303589231784842e-09 0.0000000000000000e+00  -5.2024705695261388e-06 7.2082235084115558e-09 0.0000000000000000e+00  -5.8942227026164712e-06 1.1420764535484650e-08 0.0000000000000000e+00  -1.1705954198846711e-06 8.3106835096231818e-09 0.0000000000000000e+00  6.5624702556502157e-01 -5.6306180933759978e-10 0.0000000000000000e+00  6.5700551080517011e-01 -1.1569565853401734e-04 0.0000000000000000e+00  6.5827167379574392e-01 1.5506585156436353e-04 0.0000000000000000e+00  6.5839800015527949e-01 -7.5730290287718866e-05 0.0000000000000000e+00  6.5860636657056648e-01 7.2571171840279995e-06 0.0000000000000000e+00  6.5876391251117594e-01 -3.7018172646028919e-05 0.0000000000000000e+00  6.5856476048011603e-01 -4.0238927384337933e-05 0.0000000000000000e+00  6.6139422157206829e-01 -6.9298373898399215e-04 0.0000000000000000e+00  6.7475899842955667e-01 -3.1054932626318000e-03 0.0000000000000000e+00  1.1249841061812245e+00 -1.0214626293959111e-09 0.0000000000000000e+00  1.1254591359596229e+00 -5.9459221828952297e-04 0.0000000000000000e+00  1.1239255366901673e+00 -2.0079190204667238e-04 0.0000000000000000e+00  1.1267047244869846e+00 -1.9443966858943756e-04 0.0000000000000000e+00  1.1257285021522478e+00 1.1614918277332308e-04 0.0000000000000000e+00  1.1252960997470056e+00 2.4931140141544873e-04 0.0000000000000000e+00  1.1250098200622547e+00 -8.4107699515463687e-05 0.0000000000000000e+00  1.1251802497333558e+00 -9.2753511713647918e-04 0.0000000000000000e+00  1.1250540947245837e+00 -4.3287881282910697e-03 0.0000000000000000e+00  1.4062394910451368e+00 -2.0490247752364275e-09 0.0000000000000000e+00  1.4054013527047970e+00 -1.4709905455800339e-04 0.0000000000000000e+00  1.4068284451286572e+00 -1.9900577759849662e-04 0.0000000000000000e+00  1.4051447807323061e+00 -1.7931471075016347e-04 0.0000000000000000e+00  1.4073852751113671e+00 3.5582996070252740e-05 0.0000000000000000e+00  1.4056068556372980e+00 1.1016263313123115e-04 0.0000000000000000e+00  1.4054504715473490e+00 3.4230392023044895e-05 0.0000000000000000e+00  1.4044811460708031e+00 -7.1021271938881436e-04 0.0000000000000000e+00  1.3948237188244026e+00 -3.0189911204413292e-03 0.0000000000000000e+00  1.4999818456803655e+00 7.8267952647718657e-10 0.0000000000000000e+00  1.4998519819063751e+00 -1.5518440238145774e-04 0.0000000000000000e+00  1.4989292460632706e+00 -1.7914189709275087e-04 0.0000000000000000e+00  1.5004779183647523e+00 -1.1588537885848936e-04 0.0000000000000000e+00  1.4973324177986582e+00 -4.4124549247824542e-05 0.0000000000000000e+00  1.4984888372801868e+00 1.1740150761740777e-04 0.0000000000000000e+00  1.4984101880259133e+00 2.9845881566511459e-04 0.0000000000000000e+00  1.4968732448851709e+00 4.4542670489855024e-04 0.0000000000000000e+00  1.4841870789109870e+00 2.4788844488302694e-04 0.0000000000000000e+00  1.4062361266489427e+00 2.7537823932371453e-09 0.0000000000000000e+00  1.4053125383270606e+00 -6.8351633309137876e-05 0.0000000000000000e+00  1.4059258016821370e+00 -1.8285416719263968e-04 0.0000000000000000e+00  1.4053929007314852e+00 -7.4043395229722033e-05 0.0000000000000000e+00  1.4067137976311361e+00 -1.1250944184540326e-04 0.0000000000000000e+00  1.4033010659216814e+00 9.9017664274881321e-05 0.0000000000000000e+00  1.4065102645236092e+00 3.8510238029049426e-04 0.0000000000000000e+00  1.4042205009082858e+00 1.2203053502262036e-03 0.0000000000000000e+00  1.3944136858841572e+00 3.2572274314174752e-03 0.0000000000000000e+00  1.1249860165553545e+00 2.4327875927527355e-09 0.0000000000000000e+00  1.1251888702794044e+00 1.6716485152142325e-04 0.0000000000000000e+00  1.1249525934656153e+00 -2.3443162729407016e-05 0.0000000000000000e+00  1.1247673386733332e+00 1.8743467205876708e-07 0.0000000000000000e+00  1.1242652027074960e+00 -1.0339562369363070e-04 0.0000000000000000e+00  1.1250383461892910e+00 -4.1904260110311149e-05 0.0000000000000000e+00  1.1227315919411029e+00 4.6226685320888448e-04 0.0000000000000000e+00  1.1259898097664351e+00 1.5424918377864049e-03 0.0000000000000000e+00  1.1250283343831433e+00 4.8274087377629914e-03 0.0000000000000000e+00  6.5624144806867113e-01 1.9672931937452797e-10 0.0000000000000000e+00  6.5575974084961774e-01 1.0801121907702337e-05 0.0000000000000000e+00  6.5644434909896798e-01 -2.2548488748625121e-04 0.0000000000000000e+00  6.5643297985890670e-01 2.6160976306632886e-05 0.0000000000000000e+00  6.5660101116757630e-01 -3.9472716056277793e-05 0.0000000000000000e+00  6.5608280607406866e-01 1.1919327402791175e-04 0.0000000000000000e+00  6.5844555280176009e-01 2.6760331534639092e-04 0.0000000000000000e+00  6.5992275960342828e-01 8.7638584592585305e-04 0.0000000000000000e+00  6.7691702141618759e-01 3.5466687760466703e-03 0.0000000000000000e+00  -7.0274897180721929e-06 -1.3015365558329265e-09 0.0000000000000000e+00  -7.2252897955406396e-06 -6.5091829292437421e-10 0.0000000000000000e+00  -4.6026678033679979e-06 -1.2275512231981375e-09 0.0000000000000000e+00  -6.2795344665858555e-06 7.1634692311463201e-10 0.0000000000000000e+00  -2.2778429644812778e-06 3.6691388010529505e-09 0.0000000000000000e+00  -6.9279175148547680e-06 -5.5806134205419888e-09 0.0000000000000000e+00  -7.0659981578054358e-06 -1.5372840698210974e-09 0.0000000000000000e+00  5.3684373373445774e-07 6.2988718002960789e-09 0.0000000000000000e+00  -1.0202813640345728e-05 -2.6644462497011837e-08 0.0000000000000000e+00  </DataArray> 
</PointData> 
</Piece>
</UnstructuredGrid>
</VTKFile>