<?xml version="1.0"?>
<VTKFile type="UnstructuredGrid"  version="0.1"  >
<UnstructuredGrid>
<Piece  NumberOfPoints="81" NumberOfCells="128">
<Points>
<DataArray  type="Float64"  NumberOfComponents="3"  format="ascii">0 0 0  0.275 0 0  0.55 0 0  0.8250000000000001 0 0  1.1 0 0  1.375 0 0  1.65 0 0  1.925 0 0  2.2 0 0  0 0.05125 0  0.275 0.05125 0  0.55 0.05125 0  0.8250000000000001 0.05125 0  1.1 0.05125 0  1.375 0.05125 0  1.65 0.05125 0  1.925 0.05125 0  2.2 0.05125 0  0 0.1025 0  0.275 0.1025 0  0.55 0.1025 0  0.8250000000000001 0.1025 0  1.1 0.1025 0  1.375 0.1025 0  1.65 0.1025 0  1.925 0.1025 0  2.2 0.1025 0  0 0.15375 0  0.275 0.15375 0  0.55 0.15375 0  0.8250000000000001 0.15375 0  1.1 0.15375 0  1.375 0.15375 0  1.65 0.15375 0  1.925 0.15375 0  2.2 0.15375 0  0 0.205 0  0.275 0.205 0  0.55 0.205 0  0.8250000000000001 0.205 0  1.1 0.205 0  1.375 0.205 0  1.65 0.205 0  1.925 0.205 0  2.2 0.205 0  0 0.25625 0  0.275 0.25625 0  0.55 0.25625 0  0.8250000000000001 0.25625 0  1.1 0.25625 0  1.375 0.25625 0  1.65 0.25625 0  1.925 0.25625 0  2.2 0.25625 0  0 0.3075 0  0.275 0.3075 0  0.55 0.3075 0  0.8250000000000001 0.3075 0  1.1 0.3075 0  1.375 0.3075 0  1.65 0.3075 0  1.925 0.3075 0  2.2 0.3075 0  0 0.35875 0  0.275 0.35875 0  0.55 0.35875 0  0.8250000000000001 0.35875 0  1.1 0.35875 0  1.375 0.35875 0  1.65 0.35875 0  1.925 0.35875 0  2.2 0.35875 0  0 0.41 0  0.275 0.41 0  0.55 0.41 0  0.8250000000000001 0.41 0  1.1 0.41 0  1.375 0.41 0  1.65 0.41 0  1.925 0.41 0  2.2 0.41 0  </DataArray>
</Points>
<Cells>
<DataArray  type="UInt32"  Name="connectivity"  format="ascii">0 1 9  1 9 10  1 2 11  1 10 11  2 3 11  3 11 12  3 4 13  3 12 13  4 5 13  5 13 14  5 6 15  5 14 15  6 7 15  7 15 16  7 8 17  7 16 17  9 10 19  9 18 19  10 11 19  11 19 20  11 12 21  11 20 21  12 13 21  13 21 22  13 14 23  13 22 23  14 15 23  15 23 24  15 16 25  15 24 25  16 17 25  17 25 26  18 19 27  19 27 28  19 20 29  19 28 29  20 21 29  21 29 30  21 22 31  21 30 31  22 23 31  23 31 32  23 24 33  23 32 33  24 25 33  25 33 34  25 26 35  25 34 35  27 28 37  27 36 37  28 29 37  29 37 38  29 30 39  29 38 39  30 31 39  31 39 40  31 32 41  31 40 41  32 33 41  33 41 42  33 34 43  33 42 43  34 35 43  35 43 44  36 37 45  37 45 46  37 38 47  37 46 47  38 39 47  39 47 48  39 40 49  39 48 49  40 41 49  41 49 50  41 42 51  41 50 51  42 43 51  43 51 52  43 44 53  43 52 53  45 46 55  45 54 55  46 47 55  47 55 56  47 48 57  47 56 57  48 49 57  49 57 58  49 50 59  49 58 59  50 51 59  51 59 60  51 52 61  51 60 61  52 53 61  53 61 62  54 55 63  55 63 64  55 56 65  55 64 65  56 57 65  57 65 66  57 58 67  57 66 67  58 59 67  59 67 68  59 60 69  59 68 69  60 61 69  61 69 70  61 62 71  61 70 71  63 64 73  63 72 73  64 65 73  65 73 74  65 66 75  65 74 75  66 67 75  67 75 76  67 68 77  67 76 77  68 69 77  69 77 78  69 70 79  69 78 79  70 71 79  71 79 80  </DataArray>
<DataArray  type="UInt32"  Name="offsets"  format="ascii">3 6 9 12 15 18 21 24 27 30 33 36 39 42 45 48 51 54 57 60 63 66 69 72 75 78 81 84 87 90 93 96 99 102 105 108 111 114 117 120 123 126 129 132 135 138 141 144 147 150 153 156 159 162 165 168 171 174 177 180 183 186 189 192 195 198 201 204 207 210 213 216 219 222 225 228 231 234 237 240 243 246 249 252 255 258 261 264 267 270 273 276 279 282 285 288 291 294 297 300 303 306 309 312 315 318 321 324 327 330 333 336 339 342 345 348 351 354 357 360 363 366 369 372 375 378 381 384 </DataArray>
<DataArray  type="UInt8"  Name="types"  format="ascii">5 5 5 5 5 5 5 5 5 5 5 5 5 5 5 5 5 5 5 5 5 5 5 5 5 5 5 5 5 5 5 5 5 5 5 5 5 5 5 5 5 5 5 5 5 5 5 5 5 5 5 5 5 5 5 5 5 5 5 5 5 5 5 5 5 5 5 5 5 5 5 5 5 5 5 5 5 5 5 5 5 5 5 5 5 5 5 5 5 5 5 5 5 5 5 5 5 5 5 5 5 5 5 5 5 5 5 5 5 5 5 5 5 5 5 5 5 5 5 5 5 5 5 5 5 5 5 5 </DataArray>
</Cells>
<PointData  Vectors="f_16"> 
<DataArray  type="Float64"  Name="f_16"  NumberOfComponents="3" format="ascii">2.0475852074999774e-05 -2.8102892278834515e-09 0.0000000000000000e+00  -1.2143919145287490e-06 -1.3819347281349600e-09 0.0000000000000000e+00  1.0595908040425813e-06 -3.5003710699637926e-09 0.0000000000000000e+00  -8.2501095530496347e-06 2.5536941638131848e-09 0.0000000000000000e+00  -2.9380851616203294e-06 4.1128772904365017e-09 0.0000000000000000e+00  -4.7828256958773134e-06 6.4117797015479567e-09 0.0000000000000000e+00  -5.2655725136037784e-06 6.7703974548385456e-09 0.0000000000000000e+00  -5.9414623623962313e-06 3.0800907843761765e-08 0.0000000000000000e+00  -1.4260226122631844e-06 3.5445193700589702e-08 0.0000000000000000e+00  6.5624701620391823e-01 4.1690015444085639e-09 0.0000000000000000e+00  6.5743523881331067e-01 -1.2439829697815101e-04 0.0000000000000000e+00  6.5806681872891271e-01 1.7805396301704096e-04 0.0000000000000000e+00  6.5790069743736457e-01 1.0270470075174219e-04 0.0000000000000000e+00  6.5804869529592080e-01 -1.5017035377290487e-05 0.0000000000000000e+00  6.5895738329025066e-01 4.1455901658789233e-05 0.0000000000000000e+00  6.6541585626525879e-01 -1.7178471034995284e-03 0.0000000000000000e+00  6.8876934866595063e-01 -4.1374942405728917e-03 0.0000000000000000e+00  7.2496587030402793e-01 -5.0489032232020215e-03 0.0000000000000000e+00  1.1249841171062751e+00 5.5216198372612459e-09 0.0000000000000000e+00  1.1257246799922296e+00 -7.3564615581546823e-04 0.0000000000000000e+00  1.1234943098124639e+00 7.9975679388606319e-05 0.0000000000000000e+00  1.1257456526266953e+00 -2.9942056028510284e-05 0.0000000000000000e+00  1.1252148701029263e+00 -1.5700193766381864e-04 0.0000000000000000e+00  1.1250864123842372e+00 1.5727974949497958e-04 0.0000000000000000e+00  1.1257059857707492e+00 -2.5344221328634795e-03 0.0000000000000000e+00  1.1241889425235798e+00 -7.6157807822006540e-03 0.0000000000000000e+00  1.1308990539819170e+00 -1.0962791067560554e-02 0.0000000000000000e+00  1.4062395304581747e+00 1.6961051509906203e-09 0.0000000000000000e+00  1.4055033552292220e+00 -7.3834099068392119e-05 0.0000000000000000e+00  1.4060807454096691e+00 2.7987994053261508e-04 0.0000000000000000e+00  1.4042578236935814e+00 -3.5538866235641493e-04 0.0000000000000000e+00  1.4081137254236209e+00 -2.6781313777153701e-04 0.0000000000000000e+00  1.4071316897033856e+00 -6.9280771662386331e-06 0.0000000000000000e+00  1.4015309308555539e+00 -1.0911897964453064e-03 0.0000000000000000e+00  1.3853917647997722e+00 -5.0208760247461431e-03 0.0000000000000000e+00  1.3565338831504132e+00 -8.4708366221565180e-03 0.0000000000000000e+00  1.4999818530792577e+00 8.9004217027530526e-10 0.0000000000000000e+00  1.5007545636251007e+00 -1.4865307595921451e-04 0.0000000000000000e+00  1.4979681887866885e+00 -1.7441027634732179e-04 0.0000000000000000e+00  1.4990111654266642e+00 -1.0263862060501325e-04 0.0000000000000000e+00  1.4990653611172060e+00 -3.1544798601218508e-05 0.0000000000000000e+00  1.5006839946393988e+00 1.4549297392894728e-04 0.0000000000000000e+00  1.4921636775851848e+00 2.8837742408847108e-04 0.0000000000000000e+00  1.4746290960122033e+00 3.2638638992122569e-04 0.0000000000000000e+00  1.4325064517713046e+00 5.5414824693600982e-05 0.0000000000000000e+00  1.4062361709150641e+00 -8.8393813638174185e-10 0.0000000000000000e+00  1.4054206319071141e+00 -1.3430051700289626e-04 0.0000000000000000e+00  1.4052107945523675e+00 -6.5811483148357037e-04 0.0000000000000000e+00  1.4045321570847402e+00 1.1989955935446827e-04 0.0000000000000000e+00  1.4074626658259197e+00 2.0865885712959413e-04 0.0000000000000000e+00  1.4049118747456573e+00 2.4544025345835433e-04 0.0000000000000000e+00  1.4027579931445553e+00 1.5447619052352461e-03 0.0000000000000000e+00  1.3851763406607911e+00 5.3312782634693271e-03 0.0000000000000000e+00  1.3558496410555303e+00 8.3130713361225881e-03 0.0000000000000000e+00  1.1249860233380742e+00 -3.5096526307932688e-09 0.0000000000000000e+00  1.1254550189111865e+00 3.0958837566437734e-04 0.0000000000000000e+00  1.1245413933804655e+00 -2.9427865707489149e-04 0.0000000000000000e+00  1.1238631170983102e+00 -1.4765151572427587e-04 0.0000000000000000e+00  1.1238408442323204e+00 1.8462975020886577e-04 0.0000000000000000e+00  1.1250010003317237e+00 8.0239319673675879e-05 0.0000000000000000e+00  1.1236673652598328e+00 2.8794925743083209e-03 0.0000000000000000e+00  1.1250396993285907e+00 8.0663267448010077e-03 0.0000000000000000e+00  1.1301809193300905e+00 1.1221982785742306e-02 0.0000000000000000e+00  6.5624147321727533e-01 -4.3618041691144301e-09 0.0000000000000000e+00  6.5617332255920802e-01 1.7459177134870574e-05 0.0000000000000000e+00  6.5624934420537528e-01 -2.4495216126036476e-04 0.0000000000000000e+00  6.5598372687118311e-01 -1.4395880097963721e-04 0.0000000000000000e+00  6.5613031329291094e-01 -1.2845477208384579e-05 0.0000000000000000e+00  6.5647039368728188e-01 4.1837419758914083e-05 0.0000000000000000e+00  6.6554591957487419e-01 1.9347219956968003e-03 0.0000000000000000e+00  6.8723007529885516e-01 4.2698300808771137e-03 0.0000000000000000e+00  7.2647546691968046e-01 5.4090752971268493e-03 0.0000000000000000e+00  -7.0360294878905408e-06 -2.9927596151527070e-09 0.0000000000000000e+00  -7.2434866103711179e-06 2.8143468615218077e-10 0.0000000000000000e+00  -4.5903167400269044e-06 3.2016885504850983e-09 0.0000000000000000e+00  -6.2633337650306069e-06 -4.4756201879282368e-10 0.0000000000000000e+00  -2.2996171509383763e-06 1.0106534620233885e-08 0.0000000000000000e+00  -6.9498769392875258e-06 -9.8114919958648850e-09 0.0000000000000000e+00  -6.9948642671302760e-06 -1.7279048296405582e-09 0.0000000000000000e+00  6.4316815987135386e-07 1.7436570048012988e-08 0.0000000000000000e+00  -1.0255789538279022e-05 -8.6291726707655451e-08 0.0000000000000000e+00  </DataArray> 
</PointData> 
</Piece>
</UnstructuredGrid>
</VTKFile>