<?xml version="1.0"?>
<VTKFile type="UnstructuredGrid"  version="0.1"  >
<UnstructuredGrid>
<Piece  NumberOfPoints="81" NumberOfCells="128">
<Points>
<DataArray  type="Float64"  NumberOfComponents="3"  format="ascii">0 0 0  0.275 0 0  0.55 0 0  0.8250000000000001 0 0  1.1 0 0  1.375 0 0  1.65 0 0  1.925 0 0  2.2 0 0  0 0.05125 0  0.275 0.05125 0  0.55 0.05125 0  0.8250000000000001 0.05125 0  1.1 0.05125 0  1.375 0.05125 0  1.65 0.05125 0  1.925 0.05125 0  2.2 0.05125 0  0 0.1025 0  0.275 0.1025 0  0.55 0.1025 0  0.8250000000000001 0.1025 0  1.1 0.1025 0  1.375 0.1025 0  1.65 0.1025 0  1.925 0.1025 0  2.2 0.1025 0  0 0.15375 0  0.275 0.15375 0  0.55 0.15375 0  0.8250000000000001 0.15375 0  1.1 0.15375 0  1.375 0.15375 0  1.65 0.15375 0  1.925 0.15375 0  2.2 0.15375 0  0 0.205 0  0.275 0.205 0  0.55 0.205 0  0.8250000000000001 0.205 0  1.1 0.205 0  1.375 0.205 0  1.65 0.205 0  1.925 0.205 0  2.2 0.205 0  0 0.25625 0  0.275 0.25625 0  0.55 0.25625 0  0.8250000000000001 0.25625 0  1.1 0.25625 0  1.375 0.25625 0  1.65 0.25625 0  1.925 0.25625 0  2.2 0.25625 0  0 0.3075 0  0.275 0.3075 0  0.55 0.3075 0  0.8250000000000001 0.3075 0  1.1 0.3075 0  1.375 0.3075 0  1.65 0.3075 0  1.925 0.3075 0  2.2 0.3075 0  0 0.35875 0  0.275 0.35875 0  0.55 0.35875 0  0.8250000000000001 0.35875 0  1.1 0.35875 0  1.375 0.35875 0  1.65 0.35875 0  1.925 0.35875 0  2.2 0.35875 0  0 0.41 0  0.275 0.41 0  0.55 0.41 0  0.8250000000000001 0.41 0  1.1 0.41 0  1.375 0.41 0  1.65 0.41 0  1.925 0.41 0  2.2 0.41 0  </DataArray>
</Points>
<Cells>
<DataArray  type="UInt32"  Name="connectivity"  format="ascii">0 1 9  1 9 10  1 2 11  1 10 11  2 3 11  3 11 12  3 4 13  3 12 13  4 5 13  5 13 14  5 6 15  5 14 15  6 7 15  7 15 16  7 8 17  7 16 17  9 10 19  9 18 19  10 11 19  11 19 20  11 12 21  11 20 21  12 13 21  13 21 22  13 14 23  13 22 23  14 15 23  15 23 24  15 16 25  15 24 25  16 17 25  17 25 26  18 19 27  19 27 28  19 20 29  19 28 29  20 21 29  21 29 30  21 22 31  21 30 31  22 23 31  23 31 32  23 24 33  23 32 33  24 25 33  25 33 34  25 26 35  25 34 35  27 28 37  27 36 37  28 29 37  29 37 38  29 30 39  29 38 39  30 31 39  31 39 40  31 32 41  31 40 41  32 33 41  33 41 42  33 34 43  33 42 43  34 35 43  35 43 44  36 37 45  37 45 46  37 38 47  37 46 47  38 39 47  39 47 48  39 40 49  39 48 49  40 41 49  41 49 50  41 42 51  41 50 51  42 43 51  43 51 52  43 44 53  43 52 53  45 46 55  45 54 55  46 47 55  47 55 56  47 48 57  47 56 57  48 49 57  49 57 58  49 50 59  49 58 59  50 51 59  51 59 60  51 52 61  51 60 61  52 53 61  53 61 62  54 55 63  55 63 64  55 56 65  55 64 65  56 57 65  57 65 66  57 58 67  57 66 67  58 59 67  59 67 68  59 60 69  59 68 69  60 61 69  61 69 70  61 62 71  61 70 71  63 64 73  63 72 73  64 65 73  65 73 74  65 66 75  65 74 75  66 67 75  67 75 76  67 68 77  67 76 77  68 69 77  69 77 78  69 70 79  69 78 79  70 71 79  71 79 80  </DataArray>
<DataArray  type="UInt32"  Name="offsets"  format="ascii">3 6 9 12 15 18 21 24 27 30 33 36 39 42 45 48 51 54 57 60 63 66 69 72 75 78 81 84 87 90 93 96 99 102 105 108 111 114 117 120 123 126 129 132 135 138 141 144 147 150 153 156 159 162 165 168 171 174 177 180 183 186 189 192 195 198 201 204 207 210 213 216 219 222 225 228 231 234 237 240 243 246 249 252 255 258 261 264 267 270 273 276 279 282 285 288 291 294 297 300 303 306 309 312 315 318 321 324 327 330 333 336 339 342 345 348 351 354 357 360 363 366 369 372 375 378 381 384 </DataArray>
<DataArray  type="UInt8"  Name="types"  format="ascii">5 5 5 5 5 5 5 5 5 5 5 5 5 5 5 5 5 5 5 5 5 5 5 5 5 5 5 5 5 5 5 5 5 5 5 5 5 5 5 5 5 5 5 5 5 5 5 5 5 5 5 5 5 5 5 5 5 5 5 5 5 5 5 5 5 5 5 5 5 5 5 5 5 5 5 5 5 5 5 5 5 5 5 5 5 5 5 5 5 5 5 5 5 5 5 5 5 5 5 5 5 5 5 5 5 5 5 5 5 5 5 5 5 5 5 5 5 5 5 5 5 5 5 5 5 5 5 5 </DataArray>
</Cells>
<PointData  Vectors="f_16"> 
<DataArray  type="Float64"  Name="f_16"  NumberOfComponents="3" format="ascii">2.0489720646891143e-05 -4.4061350996199303e-09 0.0000000000000000e+00  -1.2012700752740192e-06 -2.7435405181516525e-11 0.0000000000000000e+00  1.0438341650608223e-06 -9.8592694223089716e-10 0.0000000000000000e+00  -8.2927837331339970e-06 1.0067766478445047e-09 0.0000000000000000e+00  -2.9406194162430531e-06 -2.5572788164766267e-12 0.0000000000000000e+00  -4.7735864912344737e-06 -8.4229691117737679e-10 0.0000000000000000e+00  -5.1846140010769832e-06 -3.8024121633567879e-10 0.0000000000000000e+00  -5.9225076458273870e-06 -4.3165305046655866e-10 0.0000000000000000e+00  -1.2397477753371260e-06 1.9432417348844649e-10 0.0000000000000000e+00  6.5624702210473917e-01 -2.6799663636258118e-10 0.0000000000000000e+00  6.5712381943490328e-01 -1.2739260015932677e-04 0.0000000000000000e+00  6.5837217525860081e-01 1.3420669278607235e-04 0.0000000000000000e+00  6.5820445347130507e-01 -3.2578862127473956e-05 0.0000000000000000e+00  6.5877336930657571e-01 -2.0709489763562728e-05 0.0000000000000000e+00  6.5863262312310134e-01 3.7378392100034726e-05 0.0000000000000000e+00  6.5836182390826592e-01 1.5166180054299666e-06 0.0000000000000000e+00  6.5750723277319134e-01 2.7468047426067134e-05 0.0000000000000000e+00  6.5751627925544509e-01 -4.3695746535784424e-05 0.0000000000000000e+00  1.1249841009877031e+00 9.6264023649606658e-10 0.0000000000000000e+00  1.1255466535418817e+00 -6.1875847488008216e-04 0.0000000000000000e+00  1.1238763583117861e+00 -1.5409097102289968e-04 0.0000000000000000e+00  1.1264595484294893e+00 -1.3470532987439434e-04 0.0000000000000000e+00  1.1256181877986846e+00 9.6610580114535759e-06 0.0000000000000000e+00  1.1252593987395196e+00 1.8516153643936888e-04 0.0000000000000000e+00  1.1251984781744095e+00 1.4917750909893864e-04 0.0000000000000000e+00  1.1246465916835009e+00 2.1026161116833789e-04 0.0000000000000000e+00  1.1241718734515060e+00 1.4389253954908617e-04 0.0000000000000000e+00  1.4062394803372029e+00 -1.2828369471058374e-10 0.0000000000000000e+00  1.4055781163096051e+00 -1.6169422159851730e-04 0.0000000000000000e+00  1.4068338352710439e+00 -1.4505218957435738e-04 0.0000000000000000e+00  1.4047348287456576e+00 -1.8732510068545624e-04 0.0000000000000000e+00  1.4072237023296581e+00 -1.7848735835104815e-04 0.0000000000000000e+00  1.4061074751666138e+00 1.0162506527777897e-04 0.0000000000000000e+00  1.4057752312344920e+00 1.5713502830278322e-04 0.0000000000000000e+00  1.4056810797799579e+00 2.0974883296196218e-04 0.0000000000000000e+00  1.4055890712197543e+00 1.3034161681119656e-04 0.0000000000000000e+00  1.4999818420610302e+00 8.8463609038459402e-10 0.0000000000000000e+00  1.5000582804813694e+00 -1.5752770960676904e-04 0.0000000000000000e+00  1.4988851506163474e+00 -1.8401636217655679e-04 0.0000000000000000e+00  1.4995989480030263e+00 -1.2695809466619021e-04 0.0000000000000000e+00  1.4973618682233842e+00 -6.6248469398407493e-05 0.0000000000000000e+00  1.4993054814237479e+00 8.2616240498653812e-05 0.0000000000000000e+00  1.4985315464653000e+00 2.8132491252714147e-04 0.0000000000000000e+00  1.4981549116802491e+00 4.5707766045992478e-04 0.0000000000000000e+00  1.4982007270184308e+00 3.4070043383051100e-04 0.0000000000000000e+00  1.4062361155844072e+00 6.8653188348184753e-10 0.0000000000000000e+00  1.4054855447146701e+00 -5.7292132074353549e-05 0.0000000000000000e+00  1.4059302637066871e+00 -2.3885467211950698e-04 0.0000000000000000e+00  1.4049621128622467e+00 -8.8283160328537496e-05 0.0000000000000000e+00  1.4064856137819786e+00 5.9024268713112209e-05 0.0000000000000000e+00  1.4036702514044246e+00 5.0288473815867309e-05 0.0000000000000000e+00  1.4066506518587243e+00 2.0605838433690335e-04 0.0000000000000000e+00  1.4051958056654450e+00 3.5119544191088056e-04 0.0000000000000000e+00  1.4050587946769841e+00 3.5368542984513010e-04 0.0000000000000000e+00  1.1249860143539543e+00 -2.5824131478695241e-11 0.0000000000000000e+00  1.1252779318311585e+00 1.8915188664027461e-04 0.0000000000000000e+00  1.1248825803939035e+00 -7.6176677695382814e-05 0.0000000000000000e+00  1.1244810664554845e+00 -7.1755384731921594e-05 0.0000000000000000e+00  1.1240388715227134e+00 -2.4334429616088250e-05 0.0000000000000000e+00  1.1247762078069983e+00 -1.6204570575789540e-05 0.0000000000000000e+00  1.1225588351032409e+00 2.0883355861762762e-04 0.0000000000000000e+00  1.1250287196404813e+00 4.3400242507213158e-04 0.0000000000000000e+00  1.1240263698017459e+00 5.1521120702349916e-04 0.0000000000000000e+00  6.5624143949750746e-01 -3.4082706844121022e-10 0.0000000000000000e+00  6.5587875758879732e-01 2.1586596821327391e-05 0.0000000000000000e+00  6.5653749886038582e-01 -2.0534948946185331e-04 0.0000000000000000e+00  6.5618720295185096e-01 -2.1054303612848721e-05 0.0000000000000000e+00  6.5664226471457476e-01 -2.0186097344098263e-05 0.0000000000000000e+00  6.5569949359648949e-01 3.6362374547929803e-05 0.0000000000000000e+00  6.5786863826701447e-01 2.1936016564560692e-04 0.0000000000000000e+00  6.5571022901409282e-01 1.7394827638342810e-04 0.0000000000000000e+00  6.5979286825448613e-01 5.7169217497437315e-04 0.0000000000000000e+00  -7.0284241250684560e-06 -8.4441021987291572e-10 0.0000000000000000e+00  -7.2265372628965302e-06 -4.8957172216142512e-10 0.0000000000000000e+00  -4.6028335622426866e-06 -2.1190356175856809e-10 0.0000000000000000e+00  -6.2742212282741392e-06 7.9079395565026214e-10 0.0000000000000000e+00  -2.2756807781034020e-06 1.1094067526761061e-09 0.0000000000000000e+00  -6.9280049593289388e-06 -1.3189970498347632e-09 0.0000000000000000e+00  -7.0864146807473790e-06 -4.3119941702839291e-10 0.0000000000000000e+00  4.7813216330115538e-07 3.0751619934573515e-10 0.0000000000000000e+00  -1.0283952145733445e-05 -4.5022204102421647e-09 0.0000000000000000e+00  </DataArray> 
</PointData> 
</Piece>
</UnstructuredGrid>
</VTKFile>