<?xml version="1.0"?>
<VTKFile type="UnstructuredGrid"  version="0.1"  >
<UnstructuredGrid>
<Piece  NumberOfPoints="81" NumberOfCells="128">
<Points>
<DataArray  type="Float64"  NumberOfComponents="3"  format="ascii">0 0 0  0.275 0 0  0.55 0 0  0.8250000000000001 0 0  1.1 0 0  1.375 0 0  1.65 0 0  1.925 0 0  2.2 0 0  0 0.05125 0  0.275 0.05125 0  0.55 0.05125 0  0.8250000000000001 0.05125 0  1.1 0.05125 0  1.375 0.05125 0  1.65 0.05125 0  1.925 0.05125 0  2.2 0.05125 0  0 0.1025 0  0.275 0.1025 0  0.55 0.1025 0  0.8250000000000001 0.1025 0  1.1 0.1025 0  1.375 0.1025 0  1.65 0.1025 0  1.925 0.1025 0  2.2 0.1025 0  0 0.15375 0  0.275 0.15375 0  0.55 0.15375 0  0.8250000000000001 0.15375 0  1.1 0.15375 0  1.375 0.15375 0  1.65 0.15375 0  1.925 0.15375 0  2.2 0.15375 0  0 0.205 0  0.275 0.205 0  0.55 0.205 0  0.8250000000000001 0.205 0  1.1 0.205 0  1.375 0.205 0  1.65 0.205 0  1.925 0.205 0  2.2 0.205 0  0 0.25625 0  0.275 0.25625 0  0.55 0.25625 0  0.8250000000000001 0.25625 0  1.1 0.25625 0  1.375 0.25625 0  1.65 0.25625 0  1.925 0.25625 0  2.2 0.25625 0  0 0.3075 0  0.275 0.3075 0  0.55 0.3075 0  0.8250000000000001 0.3075 0  1.1 0.3075 0  1.375 0.3075 0  1.65 0.3075 0  1.925 0.3075 0  2.2 0.3075 0  0 0.35875 0  0.275 0.35875 0  0.55 0.35875 0  0.8250000000000001 0.35875 0  1.1 0.35875 0  1.375 0.35875 0  1.65 0.35875 0  1.925 0.35875 0  2.2 0.35875 0  0 0.41 0  0.275 0.41 0  0.55 0.41 0  0.8250000000000001 0.41 0  1.1 0.41 0  1.375 0.41 0  1.65 0.41 0  1.925 0.41 0  2.2 0.41 0  </DataArray>
</Points>
<Cells>
<DataArray  type="UInt32"  Name="connectivity"  format="ascii">0 1 9  1 9 10  1 2 11  1 10 11  2 3 11  3 11 12  3 4 13  3 12 13  4 5 13  5 13 14  5 6 15  5 14 15  6 7 15  7 15 16  7 8 17  7 16 17  9 10 19  9 18 19  10 11 19  11 19 20  11 12 21  11 20 21  12 13 21  13 21 22  13 14 23  13 22 23  14 15 23  15 23 24  15 16 25  15 24 25  16 17 25  17 25 26  18 19 27  19 27 28  19 20 29  19 28 29  20 21 29  21 29 30  21 22 31  21 30 31  22 23 31  23 31 32  23 24 33  23 32 33  24 25 33  25 33 34  25 26 35  25 34 35  27 28 37  27 36 37  28 29 37  29 37 38  29 30 39  29 38 39  30 31 39  31 39 40  31 32 41  31 40 41  32 33 41  33 41 42  33 34 43  33 42 43  34 35 43  35 43 44  36 37 45  37 45 46  37 38 47  37 46 47  38 39 47  39 47 48  39 40 49  39 48 49  40 41 49  41 49 50  41 42 51  41 50 51  42 43 51  43 51 52  43 44 53  43 52 53  45 46 55  45 54 55  46 47 55  47 55 56  47 48 57  47 56 57  48 49 57  49 57 58  49 50 59  49 58 59  50 51 59  51 59 60  51 52 61  51 60 61  52 53 61  53 61 62  54 55 63  55 63 64  55 56 65  55 64 65  56 57 65  57 65 66  57 58 67  57 66 67  58 59 67  59 67 68  59 60 69  59 68 69  60 61 69  61 69 70  61 62 71  61 70 71  63 64 73  63 72 73  64 65 73  65 73 74  65 66 75  65 74 75  66 67 75  67 75 76  67 68 77  67 76 77  68 69 77  69 77 78  69 70 79  69 78 79  70 71 79  71 79 80  </DataArray>
<DataArray  type="UInt32"  Name="offsets"  format="ascii">3 6 9 12 15 18 21 24 27 30 33 36 39 42 45 48 51 54 57 60 63 66 69 72 75 78 81 84 87 90 93 96 99 102 105 108 111 114 117 120 123 126 129 132 135 138 141 144 147 150 153 156 159 162 165 168 171 174 177 180 183 186 189 192 195 198 201 204 207 210 213 216 219 222 225 228 231 234 237 240 243 246 249 252 255 258 261 264 267 270 273 276 279 282 285 288 291 294 297 300 303 306 309 312 315 318 321 324 327 330 333 336 339 342 345 348 351 354 357 360 363 366 369 372 375 378 381 384 </DataArray>
<DataArray  type="UInt8"  Name="types"  format="ascii">5 5 5 5 5 5 5 5 5 5 5 5 5 5 5 5 5 5 5 5 5 5 5 5 5 5 5 5 5 5 5 5 5 5 5 5 5 5 5 5 5 5 5 5 5 5 5 5 5 5 5 5 5 5 5 5 5 5 5 5 5 5 5 5 5 5 5 5 5 5 5 5 5 5 5 5 5 5 5 5 5 5 5 5 5 5 5 5 5 5 5 5 5 5 5 5 5 5 5 5 5 5 5 5 5 5 5 5 5 5 5 5 5 5 5 5 5 5 5 5 5 5 5 5 5 5 5 5 </DataArray>
</Cells>
<PointData  Vectors="f_16"> 
<DataArray  type="Float64"  Name="f_16"  NumberOfComponents="3" format="ascii">2.0489913589844428e-05 -4.4130988066914606e-09 0.0000000000000000e+00  -1.2012413725565807e-06 -1.9301606900632086e-11 0.0000000000000000e+00  1.0435956368722831e-06 -9.5133330833771286e-10 0.0000000000000000e+00  -8.2927951659343906e-06 9.5034364250956809e-10 0.0000000000000000e+00  -2.9402326606177336e-06 -3.2778434631131055e-11 0.0000000000000000e+00  -4.7734929302386919e-06 -7.6883778477189684e-10 0.0000000000000000e+00  -5.1849132163758994e-06 -3.6670772270063571e-10 0.0000000000000000e+00  -5.9224353231250091e-06 -5.2239878464410993e-10 0.0000000000000000e+00  -1.2393147351507980e-06 1.7876092483189963e-10 0.0000000000000000e+00  6.5624702224017828e-01 -3.2147963133088110e-10 0.0000000000000000e+00  6.5712391197643161e-01 -1.2734239685732474e-04 0.0000000000000000e+00  6.5837047138848392e-01 1.3385084048774521e-04 0.0000000000000000e+00  6.5820313202774261e-01 -3.2532521679085021e-05 0.0000000000000000e+00  6.5877279796264288e-01 -1.9835520118405870e-05 0.0000000000000000e+00  6.5863111358716986e-01 3.7779837168847814e-05 0.0000000000000000e+00  6.5835564382356337e-01 1.0030205704642351e-06 0.0000000000000000e+00  6.5750480669991296e-01 2.7303158224777673e-05 0.0000000000000000e+00  6.5750931300114146e-01 -4.2311846961803909e-05 0.0000000000000000e+00  1.1249841012160249e+00 9.2954389812223402e-10 0.0000000000000000e+00  1.1255454048130185e+00 -6.1913921631032794e-04 0.0000000000000000e+00  1.1238770534199358e+00 -1.5581493797589004e-04 0.0000000000000000e+00  1.1264635207477076e+00 -1.3321448547642739e-04 0.0000000000000000e+00  1.1256175537326834e+00 1.2305952417170339e-05 0.0000000000000000e+00  1.1252507725042178e+00 1.8419057225397078e-04 0.0000000000000000e+00  1.1251951592430249e+00 1.4793156095244413e-04 0.0000000000000000e+00  1.1246475090902586e+00 2.1096343451753775e-04 0.0000000000000000e+00  1.1241620544163857e+00 1.4474452127030742e-04 0.0000000000000000e+00  1.4062394805215248e+00 -1.3185435729552384e-10 0.0000000000000000e+00  1.4055775281922249e+00 -1.6312623095077997e-04 0.0000000000000000e+00  1.4068459627567285e+00 -1.4661001952627088e-04 0.0000000000000000e+00  1.4047413476658770e+00 -1.8365039850352151e-04 0.0000000000000000e+00  1.4072043514329462e+00 -1.7620840308982789e-04 0.0000000000000000e+00  1.4060962229524481e+00 9.8035415626661931e-05 0.0000000000000000e+00  1.4057913705775713e+00 1.5686084112791801e-04 0.0000000000000000e+00  1.4056819068844486e+00 2.1299419551316801e-04 0.0000000000000000e+00  1.4055714281702412e+00 1.3081045115046394e-04 0.0000000000000000e+00  1.4999818423912186e+00 8.8163182593199871e-10 0.0000000000000000e+00  1.5000588502638994e+00 -1.5738556947662104e-04 0.0000000000000000e+00  1.4989019013514626e+00 -1.8401527487224017e-04 0.0000000000000000e+00  1.4996019211746252e+00 -1.2717780517836267e-04 0.0000000000000000e+00  1.4973354122014595e+00 -6.5687948256631620e-05 0.0000000000000000e+00  1.4992998432651936e+00 8.3681066451380708e-05 0.0000000000000000e+00  1.4985563611047057e+00 2.8176398860451485e-04 0.0000000000000000e+00  1.4981538533607559e+00 4.5811157055370631e-04 0.0000000000000000e+00  1.4981888266859302e+00 3.4261505566001734e-04 0.0000000000000000e+00  1.4062361157889329e+00 6.8706080106762842e-10 0.0000000000000000e+00  1.4054853139890255e+00 -5.5711073373478296e-05 0.0000000000000000e+00  1.4059424086968610e+00 -2.3736013940928426e-04 0.0000000000000000e+00  1.4049679636517762e+00 -9.2097117585482850e-05 0.0000000000000000e+00  1.4064673712283167e+00 5.7712114611292956e-05 0.0000000000000000e+00  1.4036620021184043e+00 5.5619164788194548e-05 0.0000000000000000e+00  1.4066692081094252e+00 2.0717513611802238e-04 0.0000000000000000e+00  1.4052014116646605e+00 3.4987874105106299e-04 0.0000000000000000e+00  1.4050504504127139e+00 3.5707564430892419e-04 0.0000000000000000e+00  1.1249860145949016e+00 4.8327325597008479e-12 0.0000000000000000e+00  1.1252768151240902e+00 1.8965154920087709e-04 0.0000000000000000e+00  1.1248837940495933e+00 -7.4304664150585885e-05 0.0000000000000000e+00  1.1244852010085187e+00 -7.3314348406153113e-05 0.0000000000000000e+00  1.1240392116297941e+00 -2.6638456949967188e-05 0.0000000000000000e+00  1.1247713207926124e+00 -1.4114434609933851e-05 0.0000000000000000e+00  1.1225619178842199e+00 2.1120013727832354e-04 0.0000000000000000e+00  1.1250388641228317e+00 4.3457074077227502e-04 0.0000000000000000e+00  1.1240330563368628e+00 5.1657074450736249e-04 0.0000000000000000e+00  6.5624143963267334e-01 -2.8969573245091609e-10 0.0000000000000000e+00  6.5587884051107304e-01 2.1548000307708233e-05 0.0000000000000000e+00  6.5653612987684429e-01 -2.0491054474176197e-04 0.0000000000000000e+00  6.5618673205823430e-01 -2.0997167240599552e-05 0.0000000000000000e+00  6.5664333095966232e-01 -2.0962176233203395e-05 0.0000000000000000e+00  6.5570149420361268e-01 3.6215673646385322e-05 0.0000000000000000e+00  6.5786901367679618e-01 2.2036903802569052e-04 0.0000000000000000e+00  6.5571868791886989e-01 1.7465825143468799e-04 0.0000000000000000e+00  6.5980265830210449e-01 5.7109114480767380e-04 0.0000000000000000e+00  -7.0282199861947322e-06 -8.3409186283745685e-10 0.0000000000000000e+00  -7.2265037505052929e-06 -4.9863277510754580e-10 0.0000000000000000e+00  -4.6030892987722551e-06 -2.4084320417912806e-10 0.0000000000000000e+00  -6.2742567101121125e-06 8.4377088809378266e-10 0.0000000000000000e+00  -2.2752867193462656e-06 1.1363176977552398e-09 0.0000000000000000e+00  -6.9279553014094845e-06 -1.3985510045547069e-09 0.0000000000000000e+00  -7.0868251755143709e-06 -4.4911644619833147e-10 0.0000000000000000e+00  4.7815902711010407e-07 3.9296752477266272e-10 0.0000000000000000e+00  -1.0283579192298604e-05 -4.4979349620273516e-09 0.0000000000000000e+00  </DataArray> 
</PointData> 
</Piece>
</UnstructuredGrid>
</VTKFile>