<?xml version="1.0"?>
<VTKFile type="UnstructuredGrid"  version="0.1"  >
<UnstructuredGrid>
<Piece  NumberOfPoints="81" NumberOfCells="128">
<Points>
<DataArray  type="Float64"  NumberOfComponents="3"  format="ascii">0 0 0  0.275 0 0  0.55 0 0  0.8250000000000001 0 0  1.1 0 0  1.375 0 0  1.65 0 0  1.925 0 0  2.2 0 0  0 0.05125 0  0.275 0.05125 0  0.55 0.05125 0  0.8250000000000001 0.05125 0  1.1 0.05125 0  1.375 0.05125 0  1.65 0.05125 0  1.925 0.05125 0  2.2 0.05125 0  0 0.1025 0  0.275 0.1025 0  0.55 0.1025 0  0.8250000000000001 0.1025 0  1.1 0.1025 0  1.375 0.1025 0  1.65 0.1025 0  1.925 0.1025 0  2.2 0.1025 0  0 0.15375 0  0.275 0.15375 0  0.55 0.15375 0  0.8250000000000001 0.15375 0  1.1 0.15375 0  1.375 0.15375 0  1.65 0.15375 0  1.925 0.15375 0  2.2 0.15375 0  0 0.205 0  0.275 0.205 0  0.55 0.205 0  0.8250000000000001 0.205 0  1.1 0.205 0  1.375 0.205 0  1.65 0.205 0  1.925 0.205 0  2.2 0.205 0  0 0.25625 0  0.275 0.25625 0  0.55 0.25625 0  0.8250000000000001 0.25625 0  1.1 0.25625 0  1.375 0.25625 0  1.65 0.25625 0  1.925 0.25625 0  2.2 0.25625 0  0 0.3075 0  0.275 0.3075 0  0.55 0.3075 0  0.8250000000000001 0.3075 0  1.1 0.3075 0  1.375 0.3075 0  1.65 0.3075 0  1.925 0.3075 0  2.2 0.3075 0  0 0.35875 0  0.275 0.35875 0  0.55 0.35875 0  0.8250000000000001 0.35875 0  1.1 0.35875 0  1.375 0.35875 0  1.65 0.35875 0  1.925 0.35875 0  2.2 0.35875 0  0 0.41 0  0.275 0.41 0  0.55 0.41 0  0.8250000000000001 0.41 0  1.1 0.41 0  1.375 0.41 0  1.65 0.41 0  1.925 0.41 0  2.2 0.41 0  </DataArray>
</Points>
<Cells>
<DataArray  type="UInt32"  Name="connectivity"  format="ascii">0 1 9  1 9 10  1 2 11  1 10 11  2 3 11  3 11 12  3 4 13  3 12 13  4 5 13  5 13 14  5 6 15  5 14 15  6 7 15  7 15 16  7 8 17  7 16 17  9 10 19  9 18 19  10 11 19  11 19 20  11 12 21  11 20 21  12 13 21  13 21 22  13 14 23  13 22 23  14 15 23  15 23 24  15 16 25  15 24 25  16 17 25  17 25 26  18 19 27  19 27 28  19 20 29  19 28 29  20 21 29  21 29 30  21 22 31  21 30 31  22 23 31  23 31 32  23 24 33  23 32 33  24 25 33  25 33 34  25 26 35  25 34 35  27 28 37  27 36 37  28 29 37  29 37 38  29 30 39  29 38 39  30 31 39  31 39 40  31 32 41  31 40 41  32 33 41  33 41 42  33 34 43  33 42 43  34 35 43  35 43 44  36 37 45  37 45 46  37 38 47  37 46 47  38 39 47  39 47 48  39 40 49  39 48 49  40 41 49  41 49 50  41 42 51  41 50 51  42 43 51  43 51 52  43 44 53  43 52 53  45 46 55  45 54 55  46 47 55  47 55 56  47 48 57  47 56 57  48 49 57  49 57 58  49 50 59  49 58 59  50 51 59  51 59 60  51 52 61  51 60 61  52 53 61  53 61 62  54 55 63  55 63 64  55 56 65  55 64 65  56 57 65  57 65 66  57 58 67  57 66 67  58 59 67  59 67 68  59 60 69  59 68 69  60 61 69  61 69 70  61 62 71  61 70 71  63 64 73  63 72 73  64 65 73  65 73 74  65 66 75  65 74 75  66 67 75  67 75 76  67 68 77  67 76 77  68 69 77  69 77 78  69 70 79  69 78 79  70 71 79  71 79 80  </DataArray>
<DataArray  type="UInt32"  Name="offsets"  format="ascii">3 6 9 12 15 18 21 24 27 30 33 36 39 42 45 48 51 54 57 60 63 66 69 72 75 78 81 84 87 90 93 96 99 102 105 108 111 114 117 120 123 126 129 132 135 138 141 144 147 150 153 156 159 162 165 168 171 174 177 180 183 186 189 192 195 198 201 204 207 210 213 216 219 222 225 228 231 234 237 240 243 246 249 252 255 258 261 264 267 270 273 276 279 282 285 288 291 294 297 300 303 306 309 312 315 318 321 324 327 330 333 336 339 342 345 348 351 354 357 360 363 366 369 372 375 378 381 384 </DataArray>
<DataArray  type="UInt8"  Name="types"  format="ascii">5 5 5 5 5 5 5 5 5 5 5 5 5 5 5 5 5 5 5 5 5 5 5 5 5 5 5 5 5 5 5 5 5 5 5 5 5 5 5 5 5 5 5 5 5 5 5 5 5 5 5 5 5 5 5 5 5 5 5 5 5 5 5 5 5 5 5 5 5 5 5 5 5 5 5 5 5 5 5 5 5 5 5 5 5 5 5 5 5 5 5 5 5 5 5 5 5 5 5 5 5 5 5 5 5 5 5 5 5 5 5 5 5 5 5 5 5 5 5 5 5 5 5 5 5 5 5 5 </DataArray>
</Cells>
<PointData  Vectors="f_16"> 
<DataArray  type="Float64"  Name="f_16"  NumberOfComponents="3" format="ascii">2.0488933436948888e-05 -4.5272500348318734e-09 0.0000000000000000e+00  -1.2019114065684414e-06 -3.4025554240142578e-12 0.0000000000000000e+00  1.0441433691665449e-06 -1.1568355127239696e-09 0.0000000000000000e+00  -8.2922049019462229e-06 1.1235204465176743e-09 0.0000000000000000e+00  -2.9415328152280592e-06 3.2322125015022306e-10 0.0000000000000000e+00  -4.7749811953462464e-06 -1.1524539945798772e-09 0.0000000000000000e+00  -5.1834724853604028e-06 -7.5828750842830488e-10 0.0000000000000000e+00  -5.9194838191766374e-06 -1.8484327995073008e-10 0.0000000000000000e+00  -1.2349582712411818e-06 1.0517391142271462e-10 0.0000000000000000e+00  6.5624702095184451e-01 -5.1392997292294610e-11 0.0000000000000000e+00  6.5719071813179086e-01 -1.2824273438317697e-04 0.0000000000000000e+00  6.5842777520541929e-01 1.3569113167078144e-04 0.0000000000000000e+00  6.5827585993461002e-01 -3.1725943662812800e-05 0.0000000000000000e+00  6.5887709320684840e-01 -2.6007180424862147e-05 0.0000000000000000e+00  6.5867010903823064e-01 2.2212758598439298e-05 0.0000000000000000e+00  6.5845939051130165e-01 9.1070485554583290e-06 0.0000000000000000e+00  6.5730802430303636e-01 3.7059475725233816e-05 0.0000000000000000e+00  6.5743241634981298e-01 -9.5559778710011957e-05 0.0000000000000000e+00  1.1249840996739107e+00 1.4376425390586521e-09 0.0000000000000000e+00  1.1256513678449391e+00 -6.2666914302778292e-04 0.0000000000000000e+00  1.1238926411112211e+00 -1.4319071888475483e-04 0.0000000000000000e+00  1.1265346239656768e+00 -1.3807889742759795e-04 0.0000000000000000e+00  1.1256038277021823e+00 -9.9033786808057762e-06 0.0000000000000000e+00  1.1253699189602633e+00 1.4719502830131025e-04 0.0000000000000000e+00  1.1252060010154250e+00 1.8964295453656140e-04 0.0000000000000000e+00  1.1245261455312681e+00 2.4487830806855154e-04 0.0000000000000000e+00  1.1240793547161994e+00 9.6820908185652683e-05 0.0000000000000000e+00  1.4062394783539056e+00 1.5417121473961761e-10 0.0000000000000000e+00  1.4056134311570743e+00 -1.6145549904959125e-04 0.0000000000000000e+00  1.4068057374653005e+00 -1.2380096152538831e-04 0.0000000000000000e+00  1.4046051727049138e+00 -1.9512730850338781e-04 0.0000000000000000e+00  1.4072583822428077e+00 -2.0396007174870075e-04 0.0000000000000000e+00  1.4061765325348923e+00 1.1918666107231013e-04 0.0000000000000000e+00  1.4056735667056366e+00 2.1270927651295590e-04 0.0000000000000000e+00  1.4055880815740545e+00 2.3215363198293663e-04 0.0000000000000000e+00  1.4056290636150102e+00 1.0232220252102157e-04 0.0000000000000000e+00  1.4999818405918901e+00 9.0443095098896912e-10 0.0000000000000000e+00  1.5001473199236357e+00 -1.5666184685982562e-04 0.0000000000000000e+00  1.4987978382342209e+00 -1.8149673013489537e-04 0.0000000000000000e+00  1.4994250650059886e+00 -1.2276827942894799e-04 0.0000000000000000e+00  1.4974318512000160e+00 -5.9759207327725742e-05 0.0000000000000000e+00  1.4994239191175041e+00 9.3556940476754725e-05 0.0000000000000000e+00  1.4983562173827432e+00 2.9653182548625877e-04 0.0000000000000000e+00  1.4981019868861887e+00 4.7338839491515813e-04 0.0000000000000000e+00  1.4983078721955856e+00 3.5002640059327565e-04 0.0000000000000000e+00  1.4062361135393728e+00 3.7800718862258212e-10 0.0000000000000000e+00  1.4055209489106064e+00 -5.6431758774299728e-05 0.0000000000000000e+00  1.4059047594974194e+00 -2.5707673634954787e-04 0.0000000000000000e+00  1.4048440997434386e+00 -7.2397350811870511e-05 0.0000000000000000e+00  1.4065349004595677e+00 9.5510144491263300e-05 0.0000000000000000e+00  1.4037744906284313e+00 5.3091723505396297e-05 0.0000000000000000e+00  1.4066192189265254e+00 1.8115514010299237e-04 0.0000000000000000e+00  1.4052126018615974e+00 3.5548870331610506e-04 0.0000000000000000e+00  1.4052355818872093e+00 3.9294877853597099e-04 0.0000000000000000e+00  1.1249860132958811e+00 -5.6988353862010428e-10 0.0000000000000000e+00  1.1253788414238670e+00 1.9778825742316510e-04 0.0000000000000000e+00  1.1249043119328135e+00 -8.4472271905735287e-05 0.0000000000000000e+00  1.1245694091596803e+00 -6.3428045338531137e-05 0.0000000000000000e+00  1.1240617170532483e+00 4.3078586971424382e-06 0.0000000000000000e+00  1.1249538641920582e+00 3.5556238457272452e-05 0.0000000000000000e+00  1.1226973141006857e+00 1.8608042506880397e-04 0.0000000000000000e+00  1.1251069383819474e+00 4.1605244836316808e-04 0.0000000000000000e+00  1.1241877871304460e+00 5.6996131255320002e-04 0.0000000000000000e+00  6.5624143795712342e-01 -5.9383536717159687e-10 0.0000000000000000e+00  6.5594516955824067e-01 2.2749338386474235e-05 0.0000000000000000e+00  6.5659672478548492e-01 -2.0612990868772345e-04 0.0000000000000000e+00  6.5627523736056337e-01 -2.0287915818476919e-05 0.0000000000000000e+00  6.5678368698711509e-01 -1.1423309942823008e-05 0.0000000000000000e+00  6.5581877625709539e-01 5.6345468928811976e-05 0.0000000000000000e+00  6.5810250668781667e-01 2.1761420658303844e-04 0.0000000000000000e+00  6.5570649926325064e-01 1.6892856601016720e-04 0.0000000000000000e+00  6.5992840679012321e-01 6.2141680273578178e-04 0.0000000000000000e+00  -7.0293986022802762e-06 -7.4852923859237840e-10 0.0000000000000000e+00  -7.2272995796774625e-06 -4.8751888224202204e-10 0.0000000000000000e+00  -4.6020981658611644e-06 3.9110916082312517e-11 0.0000000000000000e+00  -6.2733885856981291e-06 5.9368877794710108e-10 0.0000000000000000e+00  -2.2760526724609621e-06 7.3766967212129090e-10 0.0000000000000000e+00  -6.9296819214426110e-06 -1.0720560690777168e-09 0.0000000000000000e+00  -7.0865486448116851e-06 5.9913380050816900e-11 0.0000000000000000e+00  4.8080563398969057e-07 2.2778102097788551e-10 0.0000000000000000e+00  -1.0282281444328391e-05 -4.4937908864420696e-09 0.0000000000000000e+00  </DataArray> 
</PointData> 
</Piece>
</UnstructuredGrid>
</VTKFile>