<?xml version="1.0"?>
<VTKFile type="UnstructuredGrid"  version="0.1"  >
<UnstructuredGrid>
<Piece  NumberOfPoints="81" NumberOfCells="128">
<Points>
<DataArray  type="Float64"  NumberOfComponents="3"  format="ascii">0 0 0  0.275 0 0  0.55 0 0  0.8250000000000001 0 0  1.1 0 0  1.375 0 0  1.65 0 0  1.925 0 0  2.2 0 0  0 0.05125 0  0.275 0.05125 0  0.55 0.05125 0  0.8250000000000001 0.05125 0  1.1 0.05125 0  1.375 0.05125 0  1.65 0.05125 0  1.925 0.05125 0  2.2 0.05125 0  0 0.1025 0  0.275 0.1025 0  0.55 0.1025 0  0.8250000000000001 0.1025 0  1.1 0.1025 0  1.375 0.1025 0  1.65 0.1025 0  1.925 0.1025 0  2.2 0.1025 0  0 0.15375 0  0.275 0.15375 0  0.55 0.15375 0  0.8250000000000001 0.15375 0  1.1 0.15375 0  1.375 0.15375 0  1.65 0.15375 0  1.925 0.15375 0  2.2 0.15375 0  0 0.205 0  0.275 0.205 0  0.55 0.205 0  0.8250000000000001 0.205 0  1.1 0.205 0  1.375 0.205 0  1.65 0.205 0  1.925 0.205 0  2.2 0.205 0  0 0.25625 0  0.275 0.25625 0  0.55 0.25625 0  0.8250000000000001 0.25625 0  1.1 0.25625 0  1.375 0.25625 0  1.65 0.25625 0  1.925 0.25625 0  2.2 0.25625 0  0 0.3075 0  0.275 0.3075 0  0.55 0.3075 0  0.8250000000000001 0.3075 0  1.1 0.3075 0  1.375 0.3075 0  1.65 0.3075 0  1.925 0.3075 0  2.2 0.3075 0  0 0.35875 0  0.275 0.35875 0  0.55 0.35875 0  0.8250000000000001 0.35875 0  1.1 0.35875 0  1.375 0.35875 0  1.65 0.35875 0  1.925 0.35875 0  2.2 0.35875 0  0 0.41 0  0.275 0.41 0  0.55 0.41 0  0.8250000000000001 0.41 0  1.1 0.41 0  1.375 0.41 0  1.65 0.41 0  1.925 0.41 0  2.2 0.41 0  </DataArray>
</Points>
<Cells>
<DataArray  type="UInt32"  Name="connectivity"  format="ascii">0 1 9  1 9 10  1 2 11  1 10 11  2 3 11  3 11 12  3 4 13  3 12 13  4 5 13  5 13 14  5 6 15  5 14 15  6 7 15  7 15 16  7 8 17  7 16 17  9 10 19  9 18 19  10 11 19  11 19 20  11 12 21  11 20 21  12 13 21  13 21 22  13 14 23  13 22 23  14 15 23  15 23 24  15 16 25  15 24 25  16 17 25  17 25 26  18 19 27  19 27 28  19 20 29  19 28 29  20 21 29  21 29 30  21 22 31  21 30 31  22 23 31  23 31 32  23 24 33  23 32 33  24 25 33  25 33 34  25 26 35  25 34 35  27 28 37  27 36 37  28 29 37  29 37 38  29 30 39  29 38 39  30 31 39  31 39 40  31 32 41  31 40 41  32 33 41  33 41 42  33 34 43  33 42 43  34 35 43  35 43 44  36 37 45  37 45 46  37 38 47  37 46 47  38 39 47  39 47 48  39 40 49  39 48 49  40 41 49  41 49 50  41 42 51  41 50 51  42 43 51  43 51 52  43 44 53  43 52 53  45 46 55  45 54 55  46 47 55  47 55 56  47 48 57  47 56 57  48 49 57  49 57 58  49 50 59  49 58 59  50 51 59  51 59 60  51 52 61  51 60 61  52 53 61  53 61 62  54 55 63  55 63 64  55 56 65  55 64 65  56 57 65  57 65 66  57 58 67  57 66 67  58 59 67  59 67 68  59 60 69  59 68 69  60 61 69  61 69 70  61 62 71  61 70 71  63 64 73  63 72 73  64 65 73  65 73 74  65 66 75  65 74 75  66 67 75  67 75 76  67 68 77  67 76 77  68 69 77  69 77 78  69 70 79  69 78 79  70 71 79  71 79 80  </DataArray>
<DataArray  type="UInt32"  Name="offsets"  format="ascii">3 6 9 12 15 18 21 24 27 30 33 36 39 42 45 48 51 54 57 60 63 66 69 72 75 78 81 84 87 90 93 96 99 102 105 108 111 114 117 120 123 126 129 132 135 138 141 144 147 150 153 156 159 162 165 168 171 174 177 180 183 186 189 192 195 198 201 204 207 210 213 216 219 222 225 228 231 234 237 240 243 246 249 252 255 258 261 264 267 270 273 276 279 282 285 288 291 294 297 300 303 306 309 312 315 318 321 324 327 330 333 336 339 342 345 348 351 354 357 360 363 366 369 372 375 378 381 384 </DataArray>
<DataArray  type="UInt8"  Name="types"  format="ascii">5 5 5 5 5 5 5 5 5 5 5 5 5 5 5 5 5 5 5 5 5 5 5 5 5 5 5 5 5 5 5 5 5 5 5 5 5 5 5 5 5 5 5 5 5 5 5 5 5 5 5 5 5 5 5 5 5 5 5 5 5 5 5 5 5 5 5 5 5 5 5 5 5 5 5 5 5 5 5 5 5 5 5 5 5 5 5 5 5 5 5 5 5 5 5 5 5 5 5 5 5 5 5 5 5 5 5 5 5 5 5 5 5 5 5 5 5 5 5 5 5 5 5 5 5 5 5 5 </DataArray>
</Cells>
<PointData  Vectors="f_16"> 
<DataArray  type="Float64"  Name="f_16"  NumberOfComponents="3" format="ascii">2.0489890431858225e-05 -4.4266195091814070e-09 0.0000000000000000e+00  -1.2013360160392403e-06 -1.2500231491041922e-11 0.0000000000000000e+00  1.0434668070888614e-06 -9.6542703977003975e-10 0.0000000000000000e+00  -8.2926414331216897e-06 9.3919972523618399e-10 0.0000000000000000e+00  -2.9401144071689838e-06 3.3537482362455545e-12 0.0000000000000000e+00  -4.7736115777568361e-06 -7.6816389211830731e-10 0.0000000000000000e+00  -5.1849005382903995e-06 -4.1448464172872103e-10 0.0000000000000000e+00  -5.9221555739642101e-06 -5.3507423544248118e-10 0.0000000000000000e+00  -1.2389631168732439e-06 1.7803783621430671e-10 0.0000000000000000e+00  6.5624702215266639e-01 -3.1505416137144471e-10 0.0000000000000000e+00  6.5712443142584687e-01 -1.2768263929466335e-04 0.0000000000000000e+00  6.5837000810654467e-01 1.3363420590930695e-04 0.0000000000000000e+00  6.5820188061574691e-01 -3.2489130651035557e-05 0.0000000000000000e+00  6.5876782045344584e-01 -1.9453352427628691e-05 0.0000000000000000e+00  6.5862669497778159e-01 3.8533949314608868e-05 0.0000000000000000e+00  6.5834795495665377e-01 5.1793147402042872e-07 0.0000000000000000e+00  6.5750293665674198e-01 2.8188826664344076e-05 0.0000000000000000e+00  6.5749881308415148e-01 -4.2422721102481209e-05 0.0000000000000000e+00  1.1249841012143444e+00 9.9657971841905382e-10 0.0000000000000000e+00  1.1255471542355162e+00 -6.2039804986430450e-04 0.0000000000000000e+00  1.1238778063216777e+00 -1.5498519947354674e-04 0.0000000000000000e+00  1.1264599188902247e+00 -1.3076364315841541e-04 0.0000000000000000e+00  1.1256102466175575e+00 1.1445539210624052e-05 0.0000000000000000e+00  1.1252489084891075e+00 1.8304087591389118e-04 0.0000000000000000e+00  1.1251961668936057e+00 1.4927055721999666e-04 0.0000000000000000e+00  1.1246417768682955e+00 2.1328115353436326e-04 0.0000000000000000e+00  1.1241503542672162e+00 1.4534566903244445e-04 0.0000000000000000e+00  1.4062394804168905e+00 -7.8936431376206928e-11 0.0000000000000000e+00  1.4055818440825778e+00 -1.6402035754503478e-04 0.0000000000000000e+00  1.4068477150034777e+00 -1.4366869090785180e-04 0.0000000000000000e+00  1.4047272190025686e+00 -1.8197320283017864e-04 0.0000000000000000e+00  1.4071946298072096e+00 -1.7936699208882104e-04 0.0000000000000000e+00  1.4061132616975986e+00 9.8241665483364917e-05 0.0000000000000000e+00  1.4057942709777096e+00 1.6002487184366872e-04 0.0000000000000000e+00  1.4056624210953574e+00 2.1344585239906511e-04 0.0000000000000000e+00  1.4055645660489671e+00 1.3319282953598783e-04 0.0000000000000000e+00  1.4999818424292113e+00 8.8310241290033187e-10 0.0000000000000000e+00  1.5000682954681741e+00 -1.5735504975893241e-04 0.0000000000000000e+00  1.4989003226012256e+00 -1.8401452254283960e-04 0.0000000000000000e+00  1.4995778284422929e+00 -1.2661810829472892e-04 0.0000000000000000e+00  1.4973341313066566e+00 -6.4828210139198858e-05 0.0000000000000000e+00  1.4993311628714105e+00 8.3975978841372413e-05 0.0000000000000000e+00  1.4985578235655994e+00 2.8297739894196053e-04 0.0000000000000000e+00  1.4981309468848503e+00 4.6068526874655665e-04 0.0000000000000000e+00  1.4981848680922163e+00 3.4498628704734675e-04 0.0000000000000000e+00  1.4062361156891416e+00 6.3231867248301672e-10 0.0000000000000000e+00  1.4054896591608164e+00 -5.4756447902309496e-05 0.0000000000000000e+00  1.4059436456224115e+00 -2.4041314439958612e-04 0.0000000000000000e+00  1.4049549194632454e+00 -9.3026227717192027e-05 0.0000000000000000e+00  1.4064600736631589e+00 6.2347378633990621e-05 0.0000000000000000e+00  1.4036810641493742e+00 5.6590551183464544e-05 0.0000000000000000e+00  1.4066765442568525e+00 2.0614587036820063e-04 0.0000000000000000e+00  1.4051915371624510e+00 3.5369000384654351e-04 0.0000000000000000e+00  1.4050575201283380e+00 3.5904089806645468e-04 0.0000000000000000e+00  1.1249860146298483e+00 -6.6553973417409611e-11 0.0000000000000000e+00  1.1252785457434973e+00 1.9096140301655377e-04 0.0000000000000000e+00  1.1248848786899386e+00 -7.5026799759759404e-05 0.0000000000000000e+00  1.1244823957401686e+00 -7.5323016062120245e-05 0.0000000000000000e+00  1.1240351141131621e+00 -2.4911882284803206e-05 0.0000000000000000e+00  1.1247750616739556e+00 -1.2008037534179721e-05 0.0000000000000000e+00  1.1225721194107465e+00 2.1144451694019451e-04 0.0000000000000000e+00  1.1250500286857896e+00 4.3517274270408297e-04 0.0000000000000000e+00  1.1240485364264186e+00 5.1895567567653781e-04 0.0000000000000000e+00  6.5624143955109304e-01 -3.0038112788283465e-10 0.0000000000000000e+00  6.5587932076767508e-01 2.1923135514488574e-05 0.0000000000000000e+00  6.5653608206390612e-01 -2.0465518997960625e-04 0.0000000000000000e+00  6.5618695305264763e-01 -2.0917437505051413e-05 0.0000000000000000e+00  6.5664123152601417e-01 -2.1007960393094554e-05 0.0000000000000000e+00  6.5570338539684148e-01 3.5943636010519686e-05 0.0000000000000000e+00  6.5787227270578763e-01 2.2141606830642553e-04 0.0000000000000000e+00  6.5573496959457489e-01 1.7468903650668058e-04 0.0000000000000000e+00  6.5981937426604809e-01 5.7221941192146851e-04 0.0000000000000000e+00  -7.0282173242577272e-06 -8.1583566990637287e-10 0.0000000000000000e+00  -7.2265953369798278e-06 -5.0086302038684226e-10 0.0000000000000000e+00  -4.6031828955812371e-06 -2.1302306658052169e-10 0.0000000000000000e+00  -6.2740942740074598e-06 8.5594369648385207e-10 0.0000000000000000e+00  -2.2751858434325863e-06 1.1034123598778874e-09 0.0000000000000000e+00  -6.9281570680669839e-06 -1.4087880024657847e-09 0.0000000000000000e+00  -7.0869091907487750e-06 -4.1148858515185175e-10 0.0000000000000000e+00  4.7840542147868386e-07 3.9860814603858703e-10 0.0000000000000000e+00  -1.0283391857996394e-05 -4.5138208131284191e-09 0.0000000000000000e+00  </DataArray> 
</PointData> 
</Piece>
</UnstructuredGrid>
</VTKFile>