<?xml version="1.0"?>
<VTKFile type="UnstructuredGrid"  version="0.1"  >
<UnstructuredGrid>
<Piece  NumberOfPoints="81" NumberOfCells="128">
<Points>
<DataArray  type="Float64"  NumberOfComponents="3"  format="ascii">0 0 0  0.275 0 0  0.55 0 0  0.8250000000000001 0 0  1.1 0 0  1.375 0 0  1.65 0 0  1.925 0 0  2.2 0 0  0 0.05125 0  0.275 0.05125 0  0.55 0.05125 0  0.8250000000000001 0.05125 0  1.1 0.05125 0  1.375 0.05125 0  1.65 0.05125 0  1.925 0.05125 0  2.2 0.05125 0  0 0.1025 0  0.275 0.1025 0  0.55 0.1025 0  0.8250000000000001 0.1025 0  1.1 0.1025 0  1.375 0.1025 0  1.65 0.1025 0  1.925 0.1025 0  2.2 0.1025 0  0 0.15375 0  0.275 0.15375 0  0.55 0.15375 0  0.8250000000000001 0.15375 0  1.1 0.15375 0  1.375 0.15375 0  1.65 0.15375 0  1.925 0.15375 0  2.2 0.15375 0  0 0.205 0  0.275 0.205 0  0.55 0.205 0  0.8250000000000001 0.205 0  1.1 0.205 0  1.375 0.205 0  1.65 0.205 0  1.925 0.205 0  2.2 0.205 0  0 0.25625 0  0.275 0.25625 0  0.55 0.25625 0  0.8250000000000001 0.25625 0  1.1 0.25625 0  1.375 0.25625 0  1.65 0.25625 0  1.925 0.25625 0  2.2 0.25625 0  0 0.3075 0  0.275 0.3075 0  0.55 0.3075 0  0.8250000000000001 0.3075 0  1.1 0.3075 0  1.375 0.3075 0  1.65 0.3075 0  1.925 0.3075 0  2.2 0.3075 0  0 0.35875 0  0.275 0.35875 0  0.55 0.35875 0  0.8250000000000001 0.35875 0  1.1 0.35875 0  1.375 0.35875 0  1.65 0.35875 0  1.925 0.35875 0  2.2 0.35875 0  0 0.41 0  0.275 0.41 0  0.55 0.41 0  0.8250000000000001 0.41 0  1.1 0.41 0  1.375 0.41 0  1.65 0.41 0  1.925 0.41 0  2.2 0.41 0  </DataArray>
</Points>
<Cells>
<DataArray  type="UInt32"  Name="connectivity"  format="ascii">0 1 9  1 9 10  1 2 11  1 10 11  2 3 11  3 11 12  3 4 13  3 12 13  4 5 13  5 13 14  5 6 15  5 14 15  6 7 15  7 15 16  7 8 17  7 16 17  9 10 19  9 18 19  10 11 19  11 19 20  11 12 21  11 20 21  12 13 21  13 21 22  13 14 23  13 22 23  14 15 23  15 23 24  15 16 25  15 24 25  16 17 25  17 25 26  18 19 27  19 27 28  19 20 29  19 28 29  20 21 29  21 29 30  21 22 31  21 30 31  22 23 31  23 31 32  23 24 33  23 32 33  24 25 33  25 33 34  25 26 35  25 34 35  27 28 37  27 36 37  28 29 37  29 37 38  29 30 39  29 38 39  30 31 39  31 39 40  31 32 41  31 40 41  32 33 41  33 41 42  33 34 43  33 42 43  34 35 43  35 43 44  36 37 45  37 45 46  37 38 47  37 46 47  38 39 47  39 47 48  39 40 49  39 48 49  40 41 49  41 49 50  41 42 51  41 50 51  42 43 51  43 51 52  43 44 53  43 52 53  45 46 55  45 54 55  46 47 55  47 55 56  47 48 57  47 56 57  48 49 57  49 57 58  49 50 59  49 58 59  50 51 59  51 59 60  51 52 61  51 60 61  52 53 61  53 61 62  54 55 63  55 63 64  55 56 65  55 64 65  56 57 65  57 65 66  57 58 67  57 66 67  58 59 67  59 67 68  59 60 69  59 68 69  60 61 69  61 69 70  61 62 71  61 70 71  63 64 73  63 72 73  64 65 73  65 73 74  65 66 75  65 74 75  66 67 75  67 75 76  67 68 77  67 76 77  68 69 77  69 77 78  69 70 79  69 78 79  70 71 79  71 79 80  </DataArray>
<DataArray  type="UInt32"  Name="offsets"  format="ascii">3 6 9 12 15 18 21 24 27 30 33 36 39 42 45 48 51 54 57 60 63 66 69 72 75 78 81 84 87 90 93 96 99 102 105 108 111 114 117 120 123 126 129 132 135 138 141 144 147 150 153 156 159 162 165 168 171 174 177 180 183 186 189 192 195 198 201 204 207 210 213 216 219 222 225 228 231 234 237 240 243 246 249 252 255 258 261 264 267 270 273 276 279 282 285 288 291 294 297 300 303 306 309 312 315 318 321 324 327 330 333 336 339 342 345 348 351 354 357 360 363 366 369 372 375 378 381 384 </DataArray>
<DataArray  type="UInt8"  Name="types"  format="ascii">5 5 5 5 5 5 5 5 5 5 5 5 5 5 5 5 5 5 5 5 5 5 5 5 5 5 5 5 5 5 5 5 5 5 5 5 5 5 5 5 5 5 5 5 5 5 5 5 5 5 5 5 5 5 5 5 5 5 5 5 5 5 5 5 5 5 5 5 5 5 5 5 5 5 5 5 5 5 5 5 5 5 5 5 5 5 5 5 5 5 5 5 5 5 5 5 5 5 5 5 5 5 5 5 5 5 5 5 5 5 5 5 5 5 5 5 5 5 5 5 5 5 5 5 5 5 5 5 </DataArray>
</Cells>
<PointData  Vectors="f_16"> 
<DataArray  type="Float64"  Name="f_16"  NumberOfComponents="3" format="ascii">2.0492494337699159e-05 -5.2001123400871797e-09 0.0000000000000000e+00  -1.2031874935788924e-06 2.8218034985858661e-10 0.0000000000000000e+00  1.0386584826874692e-06 -1.2486151177701543e-09 0.0000000000000000e+00  -8.2873429916591026e-06 -2.0510298510688978e-10 0.0000000000000000e+00  -2.9319941388435624e-06 4.9877500928003057e-11 0.0000000000000000e+00  -4.7775058130508264e-06 2.3828673928286688e-09 0.0000000000000000e+00  -5.1989937953966216e-06 2.4302786649516663e-09 0.0000000000000000e+00  -5.8901209666277833e-06 6.7979497437926353e-09 0.0000000000000000e+00  -1.1597599409665227e-06 4.0020726256390868e-09 0.0000000000000000e+00  6.5624702252037004e-01 -5.6772398165793064e-10 0.0000000000000000e+00  6.5705950386820833e-01 -1.2709845213027351e-04 0.0000000000000000e+00  6.5845592202740966e-01 1.2025649147605700e-04 0.0000000000000000e+00  6.5833007161013835e-01 -5.3389862620076830e-05 0.0000000000000000e+00  6.5877603937652607e-01 -4.1788734790234221e-06 0.0000000000000000e+00  6.5864400086921970e-01 1.6844681050396685e-05 0.0000000000000000e+00  6.5860772351130481e-01 -4.6911239700100655e-05 0.0000000000000000e+00  6.5933170173049505e-01 -2.5320581643187398e-04 0.0000000000000000e+00  6.6715339470208068e-01 -2.1970867367169964e-03 0.0000000000000000e+00  1.1249841067829016e+00 2.5250467901509208e-09 0.0000000000000000e+00  1.1255976429505894e+00 -6.5633806758246959e-04 0.0000000000000000e+00  1.1240219629827397e+00 -1.7616957811402575e-04 0.0000000000000000e+00  1.1266644640239809e+00 -6.6424021054859299e-05 0.0000000000000000e+00  1.1254667537807326e+00 4.1173644811928665e-05 0.0000000000000000e+00  1.1254132300885360e+00 1.4035847800890038e-04 0.0000000000000000e+00  1.1252504933683383e+00 9.7723816644118119e-05 0.0000000000000000e+00  1.1249422391728126e+00 -9.9098086740078288e-05 0.0000000000000000e+00  1.1244974096314515e+00 -2.6634202784073875e-03 0.0000000000000000e+00  1.4062394837633692e+00 7.8632174176875258e-10 0.0000000000000000e+00  1.4056769105544742e+00 -2.0987407401736017e-04 0.0000000000000000e+00  1.4070153204323672e+00 -7.3226578516649197e-05 0.0000000000000000e+00  1.4043739316286292e+00 -1.0378563047088836e-04 0.0000000000000000e+00  1.4067747193192415e+00 -1.9261801597050205e-04 0.0000000000000000e+00  1.4065626426719788e+00 6.1837477563405201e-05 0.0000000000000000e+00  1.4059255121150549e+00 2.2803585529936130e-04 0.0000000000000000e+00  1.4049109863523190e+00 -2.2478636484703598e-04 0.0000000000000000e+00  1.4002095034866324e+00 -1.7756970319838781e-03 0.0000000000000000e+00  1.4999818493032959e+00 8.2372535604448261e-10 0.0000000000000000e+00  1.5003370208183524e+00 -1.5630934379225498e-04 0.0000000000000000e+00  1.4988919968362135e+00 -1.7802944527360657e-04 0.0000000000000000e+00  1.4989460349591377e+00 -1.1564464969990007e-04 0.0000000000000000e+00  1.4969716398646900e+00 -4.7673815890677504e-05 0.0000000000000000e+00  1.5002388312025394e+00 1.0532580433344536e-04 0.0000000000000000e+00  1.4986258422406444e+00 2.9938694058288893e-04 0.0000000000000000e+00  1.4972451204176263e+00 4.6919737735820325e-04 0.0000000000000000e+00  1.4911712611852925e+00 2.8122692111879537e-04 0.0000000000000000e+00  1.4062361194840991e+00 -3.0809213524870609e-10 0.0000000000000000e+00  1.4055832002873518e+00 -6.6418372359176189e-06 0.0000000000000000e+00  1.4061163164966968e+00 -3.0423869272825732e-04 0.0000000000000000e+00  1.4046322739364301e+00 -1.4995620954185782e-04 0.0000000000000000e+00  1.4060917694410482e+00 1.0652202178229374e-04 0.0000000000000000e+00  1.4042123851440371e+00 1.3185290460699054e-04 0.0000000000000000e+00  1.4069553700535606e+00 1.8194210215195978e-04 0.0000000000000000e+00  1.4046420956263663e+00 7.7973400957022062e-04 0.0000000000000000e+00  1.3998251682049738e+00 2.0945756771823536e-03 0.0000000000000000e+00  1.1249860196907491e+00 -1.4470930542977508e-09 0.0000000000000000e+00  1.1253226287101066e+00 2.2714411208685567e-04 0.0000000000000000e+00  1.1250425739947798e+00 -4.8322407924096075e-05 0.0000000000000000e+00  1.1247271444797338e+00 -1.2630920623950598e-04 0.0000000000000000e+00  1.1239912284255298e+00 -3.2691564311377015e-05 0.0000000000000000e+00  1.1251150174849609e+00 5.9367259666639281e-05 0.0000000000000000e+00  1.1229061147683688e+00 2.7952895576222893e-04 0.0000000000000000e+00  1.1257203439583461e+00 7.4244776169956380e-04 0.0000000000000000e+00  1.1245781423103420e+00 3.2175294825618076e-03 0.0000000000000000e+00  6.5624144232415127e-01 -3.4125396988146994e-11 0.0000000000000000e+00  6.5581282348430403e-01 2.1671816697852978e-05 0.0000000000000000e+00  6.5662704424922314e-01 -1.9103710299809041e-04 0.0000000000000000e+00  6.5635943967109234e-01 3.8157163939186752e-06 0.0000000000000000e+00  6.5675010927202393e-01 -2.9011304157732482e-05 0.0000000000000000e+00  6.5592470815668857e-01 6.6357097053774050e-05 0.0000000000000000e+00  6.5842430297837551e-01 2.7221141326798679e-04 0.0000000000000000e+00  6.5784661297084490e-01 4.4588442243080189e-04 0.0000000000000000e+00  6.6945244784286262e-01 2.6616485748665445e-03 0.0000000000000000e+00  -7.0256654748570832e-06 -7.5421979167457333e-11 0.0000000000000000e+00  -7.2290634669936317e-06 -8.0089459032935539e-10 0.0000000000000000e+00  -4.6085453484007692e-06 1.1890603160560932e-10 0.0000000000000000e+00  -6.2712021854574638e-06 1.6348541820589415e-09 0.0000000000000000e+00  -2.2688555320604558e-06 1.0412793710475407e-09 0.0000000000000000e+00  -6.9351252657888303e-06 -4.6032154357850980e-09 0.0000000000000000e+00  -7.0813752540511658e-06 1.3808238039086593e-09 0.0000000000000000e+00  5.2585148023785096e-07 4.0049481768638221e-09 0.0000000000000000e+00  -1.0207101274974380e-05 -1.6135938577736569e-08 0.0000000000000000e+00  </DataArray> 
</PointData> 
</Piece>
</UnstructuredGrid>
</VTKFile>