<?xml version="1.0"?>
<VTKFile type="UnstructuredGrid"  version="0.1"  >
<UnstructuredGrid>
<Piece  NumberOfPoints="81" NumberOfCells="128">
<Points>
<DataArray  type="Float64"  NumberOfComponents="3"  format="ascii">0 0 0  0.275 0 0  0.55 0 0  0.8250000000000001 0 0  1.1 0 0  1.375 0 0  1.65 0 0  1.925 0 0  2.2 0 0  0 0.05125 0  0.275 0.05125 0  0.55 0.05125 0  0.8250000000000001 0.05125 0  1.1 0.05125 0  1.375 0.05125 0  1.65 0.05125 0  1.925 0.05125 0  2.2 0.05125 0  0 0.1025 0  0.275 0.1025 0  0.55 0.1025 0  0.8250000000000001 0.1025 0  1.1 0.1025 0  1.375 0.1025 0  1.65 0.1025 0  1.925 0.1025 0  2.2 0.1025 0  0 0.15375 0  0.275 0.15375 0  0.55 0.15375 0  0.8250000000000001 0.15375 0  1.1 0.15375 0  1.375 0.15375 0  1.65 0.15375 0  1.925 0.15375 0  2.2 0.15375 0  0 0.205 0  0.275 0.205 0  0.55 0.205 0  0.8250000000000001 0.205 0  1.1 0.205 0  1.375 0.205 0  1.65 0.205 0  1.925 0.205 0  2.2 0.205 0  0 0.25625 0  0.275 0.25625 0  0.55 0.25625 0  0.8250000000000001 0.25625 0  1.1 0.25625 0  1.375 0.25625 0  1.65 0.25625 0  1.925 0.25625 0  2.2 0.25625 0  0 0.3075 0  0.275 0.3075 0  0.55 0.3075 0  0.8250000000000001 0.3075 0  1.1 0.3075 0  1.375 0.3075 0  1.65 0.3075 0  1.925 0.3075 0  2.2 0.3075 0  0 0.35875 0  0.275 0.35875 0  0.55 0.35875 0  0.8250000000000001 0.35875 0  1.1 0.35875 0  1.375 0.35875 0  1.65 0.35875 0  1.925 0.35875 0  2.2 0.35875 0  0 0.41 0  0.275 0.41 0  0.55 0.41 0  0.8250000000000001 0.41 0  1.1 0.41 0  1.375 0.41 0  1.65 0.41 0  1.925 0.41 0  2.2 0.41 0  </DataArray>
</Points>
<Cells>
<DataArray  type="UInt32"  Name="connectivity"  format="ascii">0 1 9  1 9 10  1 2 11  1 10 11  2 3 11  3 11 12  3 4 13  3 12 13  4 5 13  5 13 14  5 6 15  5 14 15  6 7 15  7 15 16  7 8 17  7 16 17  9 10 19  9 18 19  10 11 19  11 19 20  11 12 21  11 20 21  12 13 21  13 21 22  13 14 23  13 22 23  14 15 23  15 23 24  15 16 25  15 24 25  16 17 25  17 25 26  18 19 27  19 27 28  19 20 29  19 28 29  20 21 29  21 29 30  21 22 31  21 30 31  22 23 31  23 31 32  23 24 33  23 32 33  24 25 33  25 33 34  25 26 35  25 34 35  27 28 37  27 36 37  28 29 37  29 37 38  29 30 39  29 38 39  30 31 39  31 39 40  31 32 41  31 40 41  32 33 41  33 41 42  33 34 43  33 42 43  34 35 43  35 43 44  36 37 45  37 45 46  37 38 47  37 46 47  38 39 47  39 47 48  39 40 49  39 48 49  40 41 49  41 49 50  41 42 51  41 50 51  42 43 51  43 51 52  43 44 53  43 52 53  45 46 55  45 54 55  46 47 55  47 55 56  47 48 57  47 56 57  48 49 57  49 57 58  49 50 59  49 58 59  50 51 59  51 59 60  51 52 61  51 60 61  52 53 61  53 61 62  54 55 63  55 63 64  55 56 65  55 64 65  56 57 65  57 65 66  57 58 67  57 66 67  58 59 67  59 67 68  59 60 69  59 68 69  60 61 69  61 69 70  61 62 71  61 70 71  63 64 73  63 72 73  64 65 73  65 73 74  65 66 75  65 74 75  66 67 75  67 75 76  67 68 77  67 76 77  68 69 77  69 77 78  69 70 79  69 78 79  70 71 79  71 79 80  </DataArray>
<DataArray  type="UInt32"  Name="offsets"  format="ascii">3 6 9 12 15 18 21 24 27 30 33 36 39 42 45 48 51 54 57 60 63 66 69 72 75 78 81 84 87 90 93 96 99 102 105 108 111 114 117 120 123 126 129 132 135 138 141 144 147 150 153 156 159 162 165 168 171 174 177 180 183 186 189 192 195 198 201 204 207 210 213 216 219 222 225 228 231 234 237 240 243 246 249 252 255 258 261 264 267 270 273 276 279 282 285 288 291 294 297 300 303 306 309 312 315 318 321 324 327 330 333 336 339 342 345 348 351 354 357 360 363 366 369 372 375 378 381 384 </DataArray>
<DataArray  type="UInt8"  Name="types"  format="ascii">5 5 5 5 5 5 5 5 5 5 5 5 5 5 5 5 5 5 5 5 5 5 5 5 5 5 5 5 5 5 5 5 5 5 5 5 5 5 5 5 5 5 5 5 5 5 5 5 5 5 5 5 5 5 5 5 5 5 5 5 5 5 5 5 5 5 5 5 5 5 5 5 5 5 5 5 5 5 5 5 5 5 5 5 5 5 5 5 5 5 5 5 5 5 5 5 5 5 5 5 5 5 5 5 5 5 5 5 5 5 5 5 5 5 5 5 5 5 5 5 5 5 5 5 5 5 5 5 </DataArray>
</Cells>
<PointData  Vectors="f_16"> 
<DataArray  type="Float64"  Name="f_16"  NumberOfComponents="3" format="ascii">2.0489655293115516e-05 -4.3924691495642425e-09 0.0000000000000000e+00  -1.2012465114699221e-06 -3.2697849673520207e-11 0.0000000000000000e+00  1.0438869108378113e-06 -9.8322413175483620e-10 0.0000000000000000e+00  -8.2928318213740724e-06 1.0162443809999659e-09 0.0000000000000000e+00  -2.9407073519904959e-06 -1.1291569436102174e-11 0.0000000000000000e+00  -4.7734959509413814e-06 -8.5728630786511844e-10 0.0000000000000000e+00  -5.1844522966605127e-06 -3.6887648996379260e-10 0.0000000000000000e+00  -5.9225656926746705e-06 -4.2236460797608978e-10 0.0000000000000000e+00  -1.2399922573738917e-06 2.0087252008636562e-10 0.0000000000000000e+00  6.5624702209252905e-01 -2.6168248881062889e-10 0.0000000000000000e+00  6.5712415761414900e-01 -1.2748310342232936e-04 0.0000000000000000e+00  6.5837049331132125e-01 1.3447619254155829e-04 0.0000000000000000e+00  6.5820246846662545e-01 -3.2396685349293050e-05 0.0000000000000000e+00  6.5877018656734576e-01 -2.0813778194383223e-05 0.0000000000000000e+00  6.5862917298449775e-01 3.8259331438091105e-05 0.0000000000000000e+00  6.5835386766986059e-01 1.7827974642351067e-06 0.0000000000000000e+00  6.5750464186063606e-01 2.6878989619035494e-05 0.0000000000000000e+00  6.5750549127992197e-01 -4.2644735236993101e-05 0.0000000000000000e+00  1.1249841009103632e+00 9.4074529043939668e-10 0.0000000000000000e+00  1.1255458457778269e+00 -6.1852976927997613e-04 0.0000000000000000e+00  1.1238749138252093e+00 -1.5376634831637504e-04 0.0000000000000000e+00  1.1264580658361587e+00 -1.3548730877301245e-04 0.0000000000000000e+00  1.1256189757631694e+00 1.0062138986917471e-05 0.0000000000000000e+00  1.1252570908782902e+00 1.8776140772090892e-04 0.0000000000000000e+00  1.1251923221039712e+00 1.4921448577159753e-04 0.0000000000000000e+00  1.1246413553610501e+00 2.0860745439681665e-04 0.0000000000000000e+00  1.1241616607373721e+00 1.4663703780162815e-04 0.0000000000000000e+00  1.4062394803089051e+00 -1.4610184506827623e-10 0.0000000000000000e+00  1.4055760259241563e+00 -1.6089958661166421e-04 0.0000000000000000e+00  1.4068306747095847e+00 -1.4559576931880378e-04 0.0000000000000000e+00  1.4047401440734983e+00 -1.8799980098265745e-04 0.0000000000000000e+00  1.4072283292451453e+00 -1.7712693337387089e-04 0.0000000000000000e+00  1.4061010573704473e+00 1.0349778193879285e-04 0.0000000000000000e+00  1.4057697746936531e+00 1.5721199480687727e-04 0.0000000000000000e+00  1.4056773411790990e+00 2.1028828096475896e-04 0.0000000000000000e+00  1.4055764195897014e+00 1.3351465876521428e-04 0.0000000000000000e+00  1.4999818419532309e+00 8.8431205571740245e-10 0.0000000000000000e+00  1.5000543420286339e+00 -1.5743663974180847e-04 0.0000000000000000e+00  1.4988840906832293e+00 -1.8380945323688357e-04 0.0000000000000000e+00  1.4996095659053279e+00 -1.2678045668577023e-04 0.0000000000000000e+00  1.4973662361227920e+00 -6.5884968141659013e-05 0.0000000000000000e+00  1.4992965205245987e+00 8.3688751980464282e-05 0.0000000000000000e+00  1.4985301731246554e+00 2.8287066042254370e-04 0.0000000000000000e+00  1.4981572257273956e+00 4.5888818903582927e-04 0.0000000000000000e+00  1.4981909759623373e+00 3.4350361023807990e-04 0.0000000000000000e+00  1.4062361155491256e+00 7.0451863723451539e-10 0.0000000000000000e+00  1.4054835303019755e+00 -5.7975302057264570e-05 0.0000000000000000e+00  1.4059275832598901e+00 -2.3800496647253896e-04 0.0000000000000000e+00  1.4049679522017799e+00 -8.7137171527631375e-05 0.0000000000000000e+00  1.4064909498852010e+00 5.8243123766196244e-05 0.0000000000000000e+00  1.4036669773285215e+00 5.0219744478791543e-05 0.0000000000000000e+00  1.4066505562097431e+00 2.0871635194486717e-04 0.0000000000000000e+00  1.4052005062448019e+00 3.5420865920950866e-04 0.0000000000000000e+00  1.4050605189968228e+00 3.5603640073294439e-04 0.0000000000000000e+00  1.1249860142772221e+00 -2.1063177155434634e-12 0.0000000000000000e+00  1.1252770597447062e+00 1.8899791890594211e-04 0.0000000000000000e+00  1.1248816132867923e+00 -7.6271274624174640e-05 0.0000000000000000e+00  1.1244807835615567e+00 -7.0622567163126118e-05 0.0000000000000000e+00  1.1240421240408944e+00 -2.4137710463443989e-05 0.0000000000000000e+00  1.1247787873829973e+00 -1.7635251982698277e-05 0.0000000000000000e+00  1.1225625184481378e+00 2.1064194822208990e-04 0.0000000000000000e+00  1.1250396426544178e+00 4.3809590529447513e-04 0.0000000000000000e+00  1.1240429534159277e+00 5.1582158405973099e-04 0.0000000000000000e+00  6.5624143948133518e-01 -3.4610209904395429e-10 0.0000000000000000e+00  6.5587906992646094e-01 2.1692718201036628e-05 0.0000000000000000e+00  6.5653628178527090e-01 -2.0552587522360829e-04 0.0000000000000000e+00  6.5618657771941646e-01 -2.1075821377658218e-05 0.0000000000000000e+00  6.5664200761525104e-01 -1.9842197691581588e-05 0.0000000000000000e+00  6.5570207442006201e-01 3.5921110013599776e-05 0.0000000000000000e+00  6.5787118528872524e-01 2.1982892246820063e-04 0.0000000000000000e+00  6.5572541413031371e-01 1.7542509803891924e-04 0.0000000000000000e+00  6.5980964236007522e-01 5.7182418548393872e-04 0.0000000000000000e+00  -7.0284633688188384e-06 -8.5836560846841998e-10 0.0000000000000000e+00  -7.2265113868799128e-06 -4.8571447347295433e-10 0.0000000000000000e+00  -4.6027798188466133e-06 -2.1780752585007607e-10 0.0000000000000000e+00  -6.2742756283302729e-06 7.8125347714631918e-10 0.0000000000000000e+00  -2.2757926432384906e-06 1.1281136186591106e-09 0.0000000000000000e+00  -6.9279969374623442e-06 -1.3143157561822325e-09 0.0000000000000000e+00  -7.0863697340221170e-06 -4.5776471452893526e-10 0.0000000000000000e+00  4.7802790079261320e-07 2.9016782631325926e-10 0.0000000000000000e+00  -1.0284312780352198e-05 -4.5295252034696139e-09 0.0000000000000000e+00  </DataArray> 
</PointData> 
</Piece>
</UnstructuredGrid>
</VTKFile>