<?xml version="1.0"?>
<VTKFile type="UnstructuredGrid"  version="0.1"  >
<UnstructuredGrid>
<Piece  NumberOfPoints="81" NumberOfCells="128">
<Points>
<DataArray  type="Float64"  NumberOfComponents="3"  format="ascii">0 0 0  0.275 0 0  0.55 0 0  0.8250000000000001 0 0  1.1 0 0  1.375 0 0  1.65 0 0  1.925 0 0  2.2 0 0  0 0.05125 0  0.275 0.05125 0  0.55 0.05125 0  0.8250000000000001 0.05125 0  1.1 0.05125 0  1.375 0.05125 0  1.65 0.05125 0  1.925 0.05125 0  2.2 0.05125 0  0 0.1025 0  0.275 0.1025 0  0.55 0.1025 0  0.8250000000000001 0.1025 0  1.1 0.1025 0  1.375 0.1025 0  1.65 0.1025 0  1.925 0.1025 0  2.2 0.1025 0  0 0.15375 0  0.275 0.15375 0  0.55 0.15375 0  0.8250000000000001 0.15375 0  1.1 0.15375 0  1.375 0.15375 0  1.65 0.15375 0  1.925 0.15375 0  2.2 0.15375 0  0 0.205 0  0.275 0.205 0  0.55 0.205 0  0.8250000000000001 0.205 0  1.1 0.205 0  1.375 0.205 0  1.65 0.205 0  1.925 0.205 0  2.2 0.205 0  0 0.25625 0  0.275 0.25625 0  0.55 0.25625 0  0.8250000000000001 0.25625 0  1.1 0.25625 0  1.375 0.25625 0  1.65 0.25625 0  1.925 0.25625 0  2.2 0.25625 0  0 0.3075 0  0.275 0.3075 0  0.55 0.3075 0  0.8250000000000001 0.3075 0  1.1 0.3075 0  1.375 0.3075 0  1.65 0.3075 0  1.925 0.3075 0  2.2 0.3075 0  0 0.35875 0  0.275 0.35875 0  0.55 0.35875 0  0.8250000000000001 0.35875 0  1.1 0.35875 0  1.375 0.35875 0  1.65 0.35875 0  1.925 0.35875 0  2.2 0.35875 0  0 0.41 0  0.275 0.41 0  0.55 0.41 0  0.8250000000000001 0.41 0  1.1 0.41 0  1.375 0.41 0  1.65 0.41 0  1.925 0.41 0  2.2 0.41 0  </DataArray>
</Points>
<Cells>
<DataArray  type="UInt32"  Name="connectivity"  format="ascii">0 1 9  1 9 10  1 2 11  1 10 11  2 3 11  3 11 12  3 4 13  3 12 13  4 5 13  5 13 14  5 6 15  5 14 15  6 7 15  7 15 16  7 8 17  7 16 17  9 10 19  9 18 19  10 11 19  11 19 20  11 12 21  11 20 21  12 13 21  13 21 22  13 14 23  13 22 23  14 15 23  15 23 24  15 16 25  15 24 25  16 17 25  17 25 26  18 19 27  19 27 28  19 20 29  19 28 29  20 21 29  21 29 30  21 22 31  21 30 31  22 23 31  23 31 32  23 24 33  23 32 33  24 25 33  25 33 34  25 26 35  25 34 35  27 28 37  27 36 37  28 29 37  29 37 38  29 30 39  29 38 39  30 31 39  31 39 40  31 32 41  31 40 41  32 33 41  33 41 42  33 34 43  33 42 43  34 35 43  35 43 44  36 37 45  37 45 46  37 38 47  37 46 47  38 39 47  39 47 48  39 40 49  39 48 49  40 41 49  41 49 50  41 42 51  41 50 51  42 43 51  43 51 52  43 44 53  43 52 53  45 46 55  45 54 55  46 47 55  47 55 56  47 48 57  47 56 57  48 49 57  49 57 58  49 50 59  49 58 59  50 51 59  51 59 60  51 52 61  51 60 61  52 53 61  53 61 62  54 55 63  55 63 64  55 56 65  55 64 65  56 57 65  57 65 66  57 58 67  57 66 67  58 59 67  59 67 68  59 60 69  59 68 69  60 61 69  61 69 70  61 62 71  61 70 71  63 64 73  63 72 73  64 65 73  65 73 74  65 66 75  65 74 75  66 67 75  67 75 76  67 68 77  67 76 77  68 69 77  69 77 78  69 70 79  69 78 79  70 71 79  71 79 80  </DataArray>
<DataArray  type="UInt32"  Name="offsets"  format="ascii">3 6 9 12 15 18 21 24 27 30 33 36 39 42 45 48 51 54 57 60 63 66 69 72 75 78 81 84 87 90 93 96 99 102 105 108 111 114 117 120 123 126 129 132 135 138 141 144 147 150 153 156 159 162 165 168 171 174 177 180 183 186 189 192 195 198 201 204 207 210 213 216 219 222 225 228 231 234 237 240 243 246 249 252 255 258 261 264 267 270 273 276 279 282 285 288 291 294 297 300 303 306 309 312 315 318 321 324 327 330 333 336 339 342 345 348 351 354 357 360 363 366 369 372 375 378 381 384 </DataArray>
<DataArray  type="UInt8"  Name="types"  format="ascii">5 5 5 5 5 5 5 5 5 5 5 5 5 5 5 5 5 5 5 5 5 5 5 5 5 5 5 5 5 5 5 5 5 5 5 5 5 5 5 5 5 5 5 5 5 5 5 5 5 5 5 5 5 5 5 5 5 5 5 5 5 5 5 5 5 5 5 5 5 5 5 5 5 5 5 5 5 5 5 5 5 5 5 5 5 5 5 5 5 5 5 5 5 5 5 5 5 5 5 5 5 5 5 5 5 5 5 5 5 5 5 5 5 5 5 5 5 5 5 5 5 5 5 5 5 5 5 5 </DataArray>
</Cells>
<PointData  Vectors="f_16"> 
<DataArray  type="Float64"  Name="f_16"  NumberOfComponents="3" format="ascii">2.0488812924273843e-05 -4.2979468546804628e-09 0.0000000000000000e+00  -1.2012070288262541e-06 -9.4045467678275903e-11 0.0000000000000000e+00  1.0447044343159233e-06 -1.0042161166704557e-09 0.0000000000000000e+00  -8.2930733408699661e-06 1.1601261510328390e-09 0.0000000000000000e+00  -2.9419094864815268e-06 2.8591384648739000e-11 0.0000000000000000e+00  -4.7732144239111286e-06 -1.0749167199538782e-09 0.0000000000000000e+00  -5.1831444075803626e-06 -2.8905732883824435e-10 0.0000000000000000e+00  -5.9235821885161595e-06 -2.1963986295439056e-10 0.0000000000000000e+00  -1.2429737337583483e-06 2.5704318903533061e-10 0.0000000000000000e+00  6.5624702164768312e-01 -1.4685073336275175e-10 0.0000000000000000e+00  6.5716243705742949e-01 -1.3019531224250507e-04 0.0000000000000000e+00  6.5837048011921140e-01 1.3612000175499482e-04 0.0000000000000000e+00  6.5822304553091315e-01 -3.3720506119447244e-05 0.0000000000000000e+00  6.5876691770948270e-01 -2.2776752691598119e-05 0.0000000000000000e+00  6.5862476226804767e-01 4.1674853518490993e-05 0.0000000000000000e+00  6.5835780104702868e-01 4.4347424490933272e-06 0.0000000000000000e+00  6.5747373723182423e-01 2.8749068042035214e-05 0.0000000000000000e+00  6.5741875653038218e-01 -3.3563044531377796e-05 0.0000000000000000e+00  1.1249840997984968e+00 8.5172161166460376e-10 0.0000000000000000e+00  1.1255782876206342e+00 -6.2184212620625904e-04 0.0000000000000000e+00  1.1238589985935554e+00 -1.4949104770705073e-04 0.0000000000000000e+00  1.1264669714194868e+00 -1.4833262990319074e-04 0.0000000000000000e+00  1.1256261573926136e+00 6.1416916492280751e-06 0.0000000000000000e+00  1.1252778830494274e+00 1.9874652580939453e-04 0.0000000000000000e+00  1.1251819594555692e+00 1.4884294388113357e-04 0.0000000000000000e+00  1.1246204215091729e+00 2.0544643702605513e-04 0.0000000000000000e+00  1.1241190331816984e+00 1.8813559156186617e-04 0.0000000000000000e+00  1.4062394795911113e+00 -2.3417446037487494e-10 0.0000000000000000e+00  1.4055648939236558e+00 -1.5270680947213162e-04 0.0000000000000000e+00  1.4067862672873874e+00 -1.4658846264338390e-04 0.0000000000000000e+00  1.4047547701092760e+00 -1.9811073368117621e-04 0.0000000000000000e+00  1.4072753911385605e+00 -1.7356534490549572e-04 0.0000000000000000e+00  1.4060689069409142e+00 1.1924863556674167e-04 0.0000000000000000e+00  1.4056768778304762e+00 1.5689495961282459e-04 0.0000000000000000e+00  1.4056060937027894e+00 2.1321211095989728e-04 0.0000000000000000e+00  1.4055858103760297e+00 1.7516914046653568e-04 0.0000000000000000e+00  1.4999818404869734e+00 8.8724768132096082e-10 0.0000000000000000e+00  1.5000486030426472e+00 -1.5651532178410956e-04 0.0000000000000000e+00  1.4988491163106008e+00 -1.8240349498626116e-04 0.0000000000000000e+00  1.4996624079937506e+00 -1.2557499164935395e-04 0.0000000000000000e+00  1.4974278969367585e+00 -6.3036819338634100e-05 0.0000000000000000e+00  1.4992216644660266e+00 9.0000637580403667e-05 0.0000000000000000e+00  1.4984231473617553e+00 2.9162687590368250e-04 0.0000000000000000e+00  1.4980918423053742e+00 4.6887986185745119e-04 0.0000000000000000e+00  1.4982057792889878e+00 3.5342976949984448e-04 0.0000000000000000e+00  1.4062361147725486e+00 7.8563006026362232e-10 0.0000000000000000e+00  1.4054735357492618e+00 -6.5246425822464520e-05 0.0000000000000000e+00  1.4058861689873359e+00 -2.3526482344476127e-04 0.0000000000000000e+00  1.4049860229001809e+00 -7.4073532904000720e-05 0.0000000000000000e+00  1.4065440769146007e+00 5.9426470423900514e-05 0.0000000000000000e+00  1.4036542169370216e+00 4.5765395350981492e-05 0.0000000000000000e+00  1.4065920602290600e+00 2.2597308934187962e-04 0.0000000000000000e+00  1.4051854063480942e+00 3.6905709476033744e-04 0.0000000000000000e+00  1.4051507874232037e+00 3.3132606432275860e-04 0.0000000000000000e+00  1.1249860132211043e+00 7.7438176307710942e-11 0.0000000000000000e+00  1.1253084250053180e+00 1.9287648057164755e-04 0.0000000000000000e+00  1.1248698259164542e+00 -7.8942607181437471e-05 0.0000000000000000e+00  1.1244972971755109e+00 -5.5735074512377484e-05 0.0000000000000000e+00  1.1240659632313543e+00 -1.6100030794796710e-05 0.0000000000000000e+00  1.1248329644517705e+00 -2.0870752742216739e-05 0.0000000000000000e+00  1.1226177618915865e+00 2.2146355967690847e-04 0.0000000000000000e+00  1.1251226385396569e+00 4.5268818558293810e-04 0.0000000000000000e+00  1.1241498188633001e+00 4.8443033546370087e-04 0.0000000000000000e+00  6.5624143892692366e-01 -4.7485608535215269e-10 0.0000000000000000e+00  6.5591670375006617e-01 2.4433378276616683e-05 0.0000000000000000e+00  6.5653892984353868e-01 -2.0662078016371832e-04 0.0000000000000000e+00  6.5621629402817971e-01 -1.8804554070305233e-05 0.0000000000000000e+00  6.5665774708747005e-01 -1.6367115915412310e-05 0.0000000000000000e+00  6.5573844741598186e-01 3.5196626387829104e-05 0.0000000000000000e+00  6.5794565473191879e-01 2.2102509168981201e-04 0.0000000000000000e+00  6.5580117700599994e-01 1.7721526020744662e-04 0.0000000000000000e+00  6.5985973585033508e-01 5.6453614586469102e-04 0.0000000000000000e+00  -7.0292156073390647e-06 -9.7529927152892072e-10 0.0000000000000000e+00  -7.2265191776500560e-06 -4.4038615716950072e-10 0.0000000000000000e+00  -4.6018937980790338e-06 -1.9412107519433146e-10 0.0000000000000000e+00  -6.2745141249037780e-06 6.1618325494872955e-10 0.0000000000000000e+00  -2.2769277462091903e-06 1.1587351773107439e-09 0.0000000000000000e+00  -6.9280341254527040e-06 -1.1237303430996729e-09 0.0000000000000000e+00  -7.0856762549578454e-06 -6.2402055661839083e-10 0.0000000000000000e+00  4.7695747002125008e-07 -5.8858276379514812e-11 0.0000000000000000e+00  -1.0288363076307780e-05 -4.5421650228198914e-09 0.0000000000000000e+00  </DataArray> 
</PointData> 
</Piece>
</UnstructuredGrid>
</VTKFile>