<?xml version="1.0"?>
<VTKFile type="UnstructuredGrid"  version="0.1"  >
<UnstructuredGrid>
<Piece  NumberOfPoints="81" NumberOfCells="128">
<Points>
<DataArray  type="Float64"  NumberOfComponents="3"  format="ascii">0 0 0  0.275 0 0  0.55 0 0  0.8250000000000001 0 0  1.1 0 0  1.375 0 0  1.65 0 0  1.925 0 0  2.2 0 0  0 0.05125 0  0.275 0.05125 0  0.55 0.05125 0  0.8250000000000001 0.05125 0  1.1 0.05125 0  1.375 0.05125 0  1.65 0.05125 0  1.925 0.05125 0  2.2 0.05125 0  0 0.1025 0  0.275 0.1025 0  0.55 0.1025 0  0.8250000000000001 0.1025 0  1.1 0.1025 0  1.375 0.1025 0  1.65 0.1025 0  1.925 0.1025 0  2.2 0.1025 0  0 0.15375 0  0.275 0.15375 0  0.55 0.15375 0  0.8250000000000001 0.15375 0  1.1 0.15375 0  1.375 0.15375 0  1.65 0.15375 0  1.925 0.15375 0  2.2 0.15375 0  0 0.205 0  0.275 0.205 0  0.55 0.205 0  0.8250000000000001 0.205 0  1.1 0.205 0  1.375 0.205 0  1.65 0.205 0  1.925 0.205 0  2.2 0.205 0  0 0.25625 0  0.275 0.25625 0  0.55 0.25625 0  0.8250000000000001 0.25625 0  1.1 0.25625 0  1.375 0.25625 0  1.65 0.25625 0  1.925 0.25625 0  2.2 0.25625 0  0 0.3075 0  0.275 0.3075 0  0.55 0.3075 0  0.8250000000000001 0.3075 0  1.1 0.3075 0  1.375 0.3075 0  1.65 0.3075 0  1.925 0.3075 0  2.2 0.3075 0  0 0.35875 0  0.275 0.35875 0  0.55 0.35875 0  0.8250000000000001 0.35875 0  1.1 0.35875 0  1.375 0.35875 0  1.65 0.35875 0  1.925 0.35875 0  2.2 0.35875 0  0 0.41 0  0.275 0.41 0  0.55 0.41 0  0.8250000000000001 0.41 0  1.1 0.41 0  1.375 0.41 0  1.65 0.41 0  1.925 0.41 0  2.2 0.41 0  </DataArray>
</Points>
<Cells>
<DataArray  type="UInt32"  Name="connectivity"  format="ascii">0 1 9  1 9 10  1 2 11  1 10 11  2 3 11  3 11 12  3 4 13  3 12 13  4 5 13  5 13 14  5 6 15  5 14 15  6 7 15  7 15 16  7 8 17  7 16 17  9 10 19  9 18 19  10 11 19  11 19 20  11 12 21  11 20 21  12 13 21  13 21 22  13 14 23  13 22 23  14 15 23  15 23 24  15 16 25  15 24 25  16 17 25  17 25 26  18 19 27  19 27 28  19 20 29  19 28 29  20 21 29  21 29 30  21 22 31  21 30 31  22 23 31  23 31 32  23 24 33  23 32 33  24 25 33  25 33 34  25 26 35  25 34 35  27 28 37  27 36 37  28 29 37  29 37 38  29 30 39  29 38 39  30 31 39  31 39 40  31 32 41  31 40 41  32 33 41  33 41 42  33 34 43  33 42 43  34 35 43  35 43 44  36 37 45  37 45 46  37 38 47  37 46 47  38 39 47  39 47 48  39 40 49  39 48 49  40 41 49  41 49 50  41 42 51  41 50 51  42 43 51  43 51 52  43 44 53  43 52 53  45 46 55  45 54 55  46 47 55  47 55 56  47 48 57  47 56 57  48 49 57  49 57 58  49 50 59  49 58 59  50 51 59  51 59 60  51 52 61  51 60 61  52 53 61  53 61 62  54 55 63  55 63 64  55 56 65  55 64 65  56 57 65  57 65 66  57 58 67  57 66 67  58 59 67  59 67 68  59 60 69  59 68 69  60 61 69  61 69 70  61 62 71  61 70 71  63 64 73  63 72 73  64 65 73  65 73 74  65 66 75  65 74 75  66 67 75  67 75 76  67 68 77  67 76 77  68 69 77  69 77 78  69 70 79  69 78 79  70 71 79  71 79 80  </DataArray>
<DataArray  type="UInt32"  Name="offsets"  format="ascii">3 6 9 12 15 18 21 24 27 30 33 36 39 42 45 48 51 54 57 60 63 66 69 72 75 78 81 84 87 90 93 96 99 102 105 108 111 114 117 120 123 126 129 132 135 138 141 144 147 150 153 156 159 162 165 168 171 174 177 180 183 186 189 192 195 198 201 204 207 210 213 216 219 222 225 228 231 234 237 240 243 246 249 252 255 258 261 264 267 270 273 276 279 282 285 288 291 294 297 300 303 306 309 312 315 318 321 324 327 330 333 336 339 342 345 348 351 354 357 360 363 366 369 372 375 378 381 384 </DataArray>
<DataArray  type="UInt8"  Name="types"  format="ascii">5 5 5 5 5 5 5 5 5 5 5 5 5 5 5 5 5 5 5 5 5 5 5 5 5 5 5 5 5 5 5 5 5 5 5 5 5 5 5 5 5 5 5 5 5 5 5 5 5 5 5 5 5 5 5 5 5 5 5 5 5 5 5 5 5 5 5 5 5 5 5 5 5 5 5 5 5 5 5 5 5 5 5 5 5 5 5 5 5 5 5 5 5 5 5 5 5 5 5 5 5 5 5 5 5 5 5 5 5 5 5 5 5 5 5 5 5 5 5 5 5 5 5 5 5 5 5 5 </DataArray>
</Cells>
<PointData  Vectors="f_16"> 
<DataArray  type="Float64"  Name="f_16"  NumberOfComponents="3" format="ascii">2.1147434721187148e-05 -3.3340399511431616e-08 0.0000000000000000e+00  -9.8803039453159961e-07 -2.7361924881128630e-08 0.0000000000000000e+00  1.6158136017404749e-06 -6.8982962650068084e-09 0.0000000000000000e+00  -8.5178101494405006e-06 3.2555424751258620e-08 0.0000000000000000e+00  -3.6206650690938353e-06 -5.6188199564833552e-08 0.0000000000000000e+00  -5.4288672771114064e-06 9.1919556199842253e-08 0.0000000000000000e+00  -7.3309171947249093e-06 -2.0029598563327797e-08 0.0000000000000000e+00  -7.0085704716720472e-06 -9.9156319352148486e-10 0.0000000000000000e+00  -3.8181631532741166e-06 1.4249113869264007e-08 0.0000000000000000e+00  6.5624722912583877e-01 -2.6827735347556367e-08 0.0000000000000000e+00  6.6246180749699157e-01 -8.8669209800981122e-04 0.0000000000000000e+00  6.6061115929121206e-01 4.2325491856331460e-05 0.0000000000000000e+00  6.8634879542582072e-01 -6.0241979158573737e-03 0.0000000000000000e+00  7.7555782565907716e-01 -1.4730919541703044e-02 0.0000000000000000e+00  8.6473987426469978e-01 -8.2046143168962391e-03 0.0000000000000000e+00  8.9857996173357735e-01 2.7098398921474026e-04 0.0000000000000000e+00  8.8828130157326513e-01 -3.9222385239070963e-03 0.0000000000000000e+00  8.8683203211331618e-01 4.8275685989177261e-03 0.0000000000000000e+00  1.1249843606846850e+00 -5.7523253533730193e-08 0.0000000000000000e+00  1.1256718560014998e+00 -9.7931277590099708e-04 0.0000000000000000e+00  1.1204980846698565e+00 -2.1105777657488300e-03 0.0000000000000000e+00  1.1319448852906746e+00 -1.1257549354844389e-02 0.0000000000000000e+00  1.1134365223244023e+00 -1.9235261728624820e-02 0.0000000000000000e+00  1.1291055069343710e+00 -2.8759505279351592e-02 0.0000000000000000e+00  1.1838708854825521e+00 -1.5674454973845901e-03 0.0000000000000000e+00  1.1786910823258150e+00 -1.3880210987473780e-03 0.0000000000000000e+00  1.1852145164112995e+00 7.9519095276048637e-04 0.0000000000000000e+00  1.4062398468271460e+00 -4.9826059013092159e-08 0.0000000000000000e+00  1.4025031726890571e+00 -4.5292495984204141e-04 0.0000000000000000e+00  1.4082915021074234e+00 -1.8674167940825890e-03 0.0000000000000000e+00  1.4012832336378551e+00 -5.3921636216328877e-03 0.0000000000000000e+00  1.3391554289576699e+00 -1.2306154220653440e-02 0.0000000000000000e+00  1.2447235434503603e+00 -2.5566999041148564e-02 0.0000000000000000e+00  1.2076427863191781e+00 -1.9224851356008882e-03 0.0000000000000000e+00  1.2263119718219859e+00 1.1717025989564900e-03 0.0000000000000000e+00  1.2188970922873639e+00 -2.7168456509452862e-03 0.0000000000000000e+00  1.4999820002446040e+00 -3.0071796472939583e-08 0.0000000000000000e+00  1.4959679898997804e+00 -1.4640085552651224e-04 0.0000000000000000e+00  1.5024348224656057e+00 -1.1876031241237529e-04 0.0000000000000000e+00  1.4940665775968340e+00 5.9731790769560836e-05 0.0000000000000000e+00  1.4088754770314105e+00 -3.2418368208082656e-05 0.0000000000000000e+00  1.2927294953410902e+00 -7.7986711776572877e-06 0.0000000000000000e+00  1.2095041351266607e+00 1.8004263197897560e-04 0.0000000000000000e+00  1.2285015879680787e+00 2.0660255434524569e-04 0.0000000000000000e+00  1.2215320023613321e+00 7.9169090342517864e-05 0.0000000000000000e+00  1.4062366076708983e+00 1.7222622045951693e-08 0.0000000000000000e+00  1.4024138020380763e+00 2.8348124844864255e-04 0.0000000000000000e+00  1.4073903197549165e+00 1.5805711083713980e-03 0.0000000000000000e+00  1.4018937350510081e+00 5.3579751706663544e-03 0.0000000000000000e+00  1.3389232128315309e+00 1.2277502300488394e-02 0.0000000000000000e+00  1.2423166342180121e+00 2.5537030586965447e-02 0.0000000000000000e+00  1.2088873826604642e+00 2.0623564500847906e-03 0.0000000000000000e+00  1.2257311631949457e+00 -9.9754931761746632e-04 0.0000000000000000e+00  1.2180601908723956e+00 2.5930295384550234e-03 0.0000000000000000e+00  1.1249860984204165e+00 4.7284635754874395e-08 0.0000000000000000e+00  1.1253999938727877e+00 5.4994887856842577e-04 0.0000000000000000e+00  1.1216132288008323e+00 1.9663595990602589e-03 0.0000000000000000e+00  1.1306023620063828e+00 1.1264113465731787e-02 0.0000000000000000e+00  1.1130365373324214e+00 1.9299785286810936e-02 0.0000000000000000e+00  1.1293520317661079e+00 2.8757066042320902e-02 0.0000000000000000e+00  1.1818311916827768e+00 1.6638332239113469e-03 0.0000000000000000e+00  1.1789954539571985e+00 1.7920047236132377e-03 0.0000000000000000e+00  1.1844217884735899e+00 -5.8127647969296952e-04 0.0000000000000000e+00  6.5624180029895396e-01 1.6571968077332395e-08 0.0000000000000000e+00  6.6116773000500484e-01 7.8115371317057254e-04 0.0000000000000000e+00  6.5897798793391238e-01 -7.8686715587060390e-05 0.0000000000000000e+00  6.8498830435731262e-01 6.0061221316164010e-03 0.0000000000000000e+00  7.7462072018000716e-01 1.4706370892011079e-02 0.0000000000000000e+00  8.6331528210795294e-01 8.2131268604338087e-03 0.0000000000000000e+00  8.9835717863132436e-01 -1.7441111087066131e-04 0.0000000000000000e+00  8.8611955201028925e-01 4.0297089165227005e-03 0.0000000000000000e+00  8.8789729797955619e-01 -4.5986420309102128e-03 0.0000000000000000e+00  -6.7275323855332644e-06 -4.6917667598861186e-09 0.0000000000000000e+00  -7.0442864591922339e-06 9.5833514358540560e-09 0.0000000000000000e+00  -4.2531567167188128e-06 1.7135669560816986e-09 0.0000000000000000e+00  -5.9539477351025332e-06 6.8600470544822212e-09 0.0000000000000000e+00  -2.5760381888018323e-06 -6.3075660212546622e-09 0.0000000000000000e+00  -7.2109322861640130e-06 -1.1920680195881658e-07 0.0000000000000000e+00  -8.5686473539650294e-06 -5.1792057260456409e-09 0.0000000000000000e+00  1.1895088426524230e-06 3.4037915418809293e-08 0.0000000000000000e+00  -1.1399965431544142e-05 -1.3892281389359140e-08 0.0000000000000000e+00  </DataArray> 
</PointData> 
</Piece>
</UnstructuredGrid>
</VTKFile>