<?xml version="1.0"?>
<VTKFile type="UnstructuredGrid"  version="0.1"  >
<UnstructuredGrid>
<Piece  NumberOfPoints="81" NumberOfCells="128">
<Points>
<DataArray  type="Float64"  NumberOfComponents="3"  format="ascii">0 0 0  0.275 0 0  0.55 0 0  0.8250000000000001 0 0  1.1 0 0  1.375 0 0  1.65 0 0  1.925 0 0  2.2 0 0  0 0.05125 0  0.275 0.05125 0  0.55 0.05125 0  0.8250000000000001 0.05125 0  1.1 0.05125 0  1.375 0.05125 0  1.65 0.05125 0  1.925 0.05125 0  2.2 0.05125 0  0 0.1025 0  0.275 0.1025 0  0.55 0.1025 0  0.8250000000000001 0.1025 0  1.1 0.1025 0  1.375 0.1025 0  1.65 0.1025 0  1.925 0.1025 0  2.2 0.1025 0  0 0.15375 0  0.275 0.15375 0  0.55 0.15375 0  0.8250000000000001 0.15375 0  1.1 0.15375 0  1.375 0.15375 0  1.65 0.15375 0  1.925 0.15375 0  2.2 0.15375 0  0 0.205 0  0.275 0.205 0  0.55 0.205 0  0.8250000000000001 0.205 0  1.1 0.205 0  1.375 0.205 0  1.65 0.205 0  1.925 0.205 0  2.2 0.205 0  0 0.25625 0  0.275 0.25625 0  0.55 0.25625 0  0.8250000000000001 0.25625 0  1.1 0.25625 0  1.375 0.25625 0  1.65 0.25625 0  1.925 0.25625 0  2.2 0.25625 0  0 0.3075 0  0.275 0.3075 0  0.55 0.3075 0  0.8250000000000001 0.3075 0  1.1 0.3075 0  1.375 0.3075 0  1.65 0.3075 0  1.925 0.3075 0  2.2 0.3075 0  0 0.35875 0  0.275 0.35875 0  0.55 0.35875 0  0.8250000000000001 0.35875 0  1.1 0.35875 0  1.375 0.35875 0  1.65 0.35875 0  1.925 0.35875 0  2.2 0.35875 0  0 0.41 0  0.275 0.41 0  0.55 0.41 0  0.8250000000000001 0.41 0  1.1 0.41 0  1.375 0.41 0  1.65 0.41 0  1.925 0.41 0  2.2 0.41 0  </DataArray>
</Points>
<Cells>
<DataArray  type="UInt32"  Name="connectivity"  format="ascii">0 1 9  1 9 10  1 2 11  1 10 11  2 3 11  3 11 12  3 4 13  3 12 13  4 5 13  5 13 14  5 6 15  5 14 15  6 7 15  7 15 16  7 8 17  7 16 17  9 10 19  9 18 19  10 11 19  11 19 20  11 12 21  11 20 21  12 13 21  13 21 22  13 14 23  13 22 23  14 15 23  15 23 24  15 16 25  15 24 25  16 17 25  17 25 26  18 19 27  19 27 28  19 20 29  19 28 29  20 21 29  21 29 30  21 22 31  21 30 31  22 23 31  23 31 32  23 24 33  23 32 33  24 25 33  25 33 34  25 26 35  25 34 35  27 28 37  27 36 37  28 29 37  29 37 38  29 30 39  29 38 39  30 31 39  31 39 40  31 32 41  31 40 41  32 33 41  33 41 42  33 34 43  33 42 43  34 35 43  35 43 44  36 37 45  37 45 46  37 38 47  37 46 47  38 39 47  39 47 48  39 40 49  39 48 49  40 41 49  41 49 50  41 42 51  41 50 51  42 43 51  43 51 52  43 44 53  43 52 53  45 46 55  45 54 55  46 47 55  47 55 56  47 48 57  47 56 57  48 49 57  49 57 58  49 50 59  49 58 59  50 51 59  51 59 60  51 52 61  51 60 61  52 53 61  53 61 62  54 55 63  55 63 64  55 56 65  55 64 65  56 57 65  57 65 66  57 58 67  57 66 67  58 59 67  59 67 68  59 60 69  59 68 69  60 61 69  61 69 70  61 62 71  61 70 71  63 64 73  63 72 73  64 65 73  65 73 74  65 66 75  65 74 75  66 67 75  67 75 76  67 68 77  67 76 77  68 69 77  69 77 78  69 70 79  69 78 79  70 71 79  71 79 80  </DataArray>
<DataArray  type="UInt32"  Name="offsets"  format="ascii">3 6 9 12 15 18 21 24 27 30 33 36 39 42 45 48 51 54 57 60 63 66 69 72 75 78 81 84 87 90 93 96 99 102 105 108 111 114 117 120 123 126 129 132 135 138 141 144 147 150 153 156 159 162 165 168 171 174 177 180 183 186 189 192 195 198 201 204 207 210 213 216 219 222 225 228 231 234 237 240 243 246 249 252 255 258 261 264 267 270 273 276 279 282 285 288 291 294 297 300 303 306 309 312 315 318 321 324 327 330 333 336 339 342 345 348 351 354 357 360 363 366 369 372 375 378 381 384 </DataArray>
<DataArray  type="UInt8"  Name="types"  format="ascii">5 5 5 5 5 5 5 5 5 5 5 5 5 5 5 5 5 5 5 5 5 5 5 5 5 5 5 5 5 5 5 5 5 5 5 5 5 5 5 5 5 5 5 5 5 5 5 5 5 5 5 5 5 5 5 5 5 5 5 5 5 5 5 5 5 5 5 5 5 5 5 5 5 5 5 5 5 5 5 5 5 5 5 5 5 5 5 5 5 5 5 5 5 5 5 5 5 5 5 5 5 5 5 5 5 5 5 5 5 5 5 5 5 5 5 5 5 5 5 5 5 5 5 5 5 5 5 5 </DataArray>
</Cells>
<PointData  Vectors="f_16"> 
<DataArray  type="Float64"  Name="f_16"  NumberOfComponents="3" format="ascii">2.0550964989070488e-05 -1.9947881762232712e-09 0.0000000000000000e+00  -1.1929144049742632e-06 -4.5039541264231039e-09 0.0000000000000000e+00  1.1392237847216504e-06 -1.8710299887646331e-09 0.0000000000000000e+00  -8.2001671142420505e-06 7.7620173296277012e-09 0.0000000000000000e+00  -2.9270429317554120e-06 5.7586636728141276e-10 0.0000000000000000e+00  -4.8310370159242156e-06 3.1306240554670188e-08 0.0000000000000000e+00  -5.8594200928922219e-06 4.9025190388922528e-08 0.0000000000000000e+00  -6.5604198063723531e-06 3.8676032099617419e-08 0.0000000000000000e+00  -2.7674043911337125e-06 3.9239981854005891e-08 0.0000000000000000e+00  6.5624706315105652e-01 -3.6504889165386739e-09 0.0000000000000000e+00  6.5753803918361675e-01 -1.3621651911998716e-04 0.0000000000000000e+00  6.5774891180609973e-01 3.3313076773889059e-04 0.0000000000000000e+00  6.5842011252590926e-01 -1.1391676277437246e-04 0.0000000000000000e+00  6.6214701177973989e-01 -8.2280504423848963e-04 0.0000000000000000e+00  6.8493919220198718e-01 -4.4026268473631629e-03 0.0000000000000000e+00  7.3158022204097106e-01 -7.8358766380076609e-03 0.0000000000000000e+00  7.8695753500921306e-01 -6.6464485414721615e-03 0.0000000000000000e+00  8.1780831750160876e-01 9.4203990265703721e-04 0.0000000000000000e+00  1.1249842024070655e+00 -1.4362659355070016e-08 0.0000000000000000e+00  1.1247240568977024e+00 -3.4058254525061438e-04 0.0000000000000000e+00  1.1233868300294445e+00 -1.2069720960322425e-04 0.0000000000000000e+00  1.1276405592168322e+00 -8.2371399992030726e-04 0.0000000000000000e+00  1.1279074447236208e+00 -1.2479080199030873e-03 0.0000000000000000e+00  1.1248168510320242e+00 -7.5175929672357316e-03 0.0000000000000000e+00  1.1214068099032977e+00 -1.5011271935749713e-02 0.0000000000000000e+00  1.1353011182005366e+00 -1.6336437301827215e-02 0.0000000000000000e+00  1.1732618275171711e+00 -6.1263444167130284e-03 0.0000000000000000e+00  1.4062397077824933e+00 -1.1054124808592465e-08 0.0000000000000000e+00  1.4044936969937425e+00 9.5304184706692128e-05 0.0000000000000000e+00  1.4072240429349516e+00 -5.1760355585186903e-04 0.0000000000000000e+00  1.4078855886736841e+00 -4.9981193803348028e-04 0.0000000000000000e+00  1.4067154409248541e+00 1.9420536816601693e-04 0.0000000000000000e+00  1.3907009259982150e+00 -4.7927820299853681e-03 0.0000000000000000e+00  1.3572511072043041e+00 -1.1238151161052212e-02 0.0000000000000000e+00  1.3113112304675396e+00 -1.1199117772015228e-02 0.0000000000000000e+00  1.2672791980984268e+00 -9.5900165394154652e-03 0.0000000000000000e+00  1.4999819320286418e+00 -1.3925684484322074e-09 0.0000000000000000e+00  1.4982064372369068e+00 -1.4705758290432534e-04 0.0000000000000000e+00  1.5002560126878675e+00 -1.5821739948126317e-04 0.0000000000000000e+00  1.5037124660627257e+00 -8.4190616560884954e-05 0.0000000000000000e+00  1.4943289077786590e+00 2.3702130879520320e-05 0.0000000000000000e+00  1.4817520357520457e+00 1.7629353716152587e-04 0.0000000000000000e+00  1.4367782754835894e+00 1.3513835555825613e-04 0.0000000000000000e+00  1.3788827437481310e+00 1.3644896726245888e-04 0.0000000000000000e+00  1.2917384884040577e+00 7.9137377219574585e-05 0.0000000000000000e+00  1.4062363688423669e+00 1.1474136244808980e-08 0.0000000000000000e+00  1.4044161047012949e+00 -2.9629481771785394e-04 0.0000000000000000e+00  1.4063264678763714e+00 1.5673759051110003e-04 0.0000000000000000e+00  1.4081915145135622e+00 3.1415466588334160e-04 0.0000000000000000e+00  1.4062592650286114e+00 -1.2352696526750690e-04 0.0000000000000000e+00  1.3886779571680676e+00 5.0235395670597677e-03 0.0000000000000000e+00  1.3584941307108547e+00 1.1368282639176745e-02 0.0000000000000000e+00  1.3107625135625487e+00 1.1267267027405454e-02 0.0000000000000000e+00  1.2661760339403656e+00 9.5496801146939397e-03 0.0000000000000000e+00  1.1249860801063873e+00 1.6655122634871660e-08 0.0000000000000000e+00  1.1244384640699876e+00 -8.5015711936208119e-05 0.0000000000000000e+00  1.1244471203154112e+00 -8.3003897966704091e-05 0.0000000000000000e+00  1.1257660937707445e+00 6.6494906903287595e-04 0.0000000000000000e+00  1.1267997843524020e+00 1.3320833848732300e-03 0.0000000000000000e+00  1.1252004909509314e+00 7.7868626907159231e-03 0.0000000000000000e+00  1.1194776313437151e+00 1.5165540991877830e-02 0.0000000000000000e+00  1.1355608582292052e+00 1.6565073273368050e-02 0.0000000000000000e+00  1.1720115358566956e+00 6.4317808985356302e-03 0.0000000000000000e+00  6.5624160710285140e-01 2.9972649307805068e-09 0.0000000000000000e+00  6.5625463773627446e-01 3.0115285258191538e-05 0.0000000000000000e+00  6.5593584425095963e-01 -3.9730051280512227e-04 0.0000000000000000e+00  6.5658764893481114e-01 7.3121703753988021e-05 0.0000000000000000e+00  6.6045445154318583e-01 8.1014581741139743e-04 0.0000000000000000e+00  6.8291424534182399e-01 4.4870670789292832e-03 0.0000000000000000e+00  7.3181383156935365e-01 7.9783030587107905e-03 0.0000000000000000e+00  7.8495663580945008e-01 6.7112912851393022e-03 0.0000000000000000e+00  8.1900384848652730e-01 -5.5710121323528051e-04 0.0000000000000000e+00  -6.9860222610446588e-06 -7.4909138532412846e-09 0.0000000000000000e+00  -7.2339633288998883e-06 -4.2218917527486737e-10 0.0000000000000000e+00  -4.5596343848191780e-06 -2.1610277310541366e-09 0.0000000000000000e+00  -6.2408895165924059e-06 4.0290955924485664e-09 0.0000000000000000e+00  -2.2660712294817139e-06 4.9000176609406786e-08 0.0000000000000000e+00  -6.8916735923172760e-06 -2.7866465304773930e-09 0.0000000000000000e+00  -7.4849187693295660e-06 -4.0759945243875670e-08 0.0000000000000000e+00  6.8388033587508959e-07 5.8820135096158666e-09 0.0000000000000000e+00  -1.0887779259084568e-05 -1.2059622578449833e-07 0.0000000000000000e+00  </DataArray> 
</PointData> 
</Piece>
</UnstructuredGrid>
</VTKFile>