<?xml version="1.0"?>
<VTKFile type="UnstructuredGrid"  version="0.1"  >
<UnstructuredGrid>
<Piece  NumberOfPoints="81" NumberOfCells="128">
<Points>
<DataArray  type="Float64"  NumberOfComponents="3"  format="ascii">0 0 0  0.275 0 0  0.55 0 0  0.8250000000000001 0 0  1.1 0 0  1.375 0 0  1.65 0 0  1.925 0 0  2.2 0 0  0 0.05125 0  0.275 0.05125 0  0.55 0.05125 0  0.8250000000000001 0.05125 0  1.1 0.05125 0  1.375 0.05125 0  1.65 0.05125 0  1.925 0.05125 0  2.2 0.05125 0  0 0.1025 0  0.275 0.1025 0  0.55 0.1025 0  0.8250000000000001 0.1025 0  1.1 0.1025 0  1.375 0.1025 0  1.65 0.1025 0  1.925 0.1025 0  2.2 0.1025 0  0 0.15375 0  0.275 0.15375 0  0.55 0.15375 0  0.8250000000000001 0.15375 0  1.1 0.15375 0  1.375 0.15375 0  1.65 0.15375 0  1.925 0.15375 0  2.2 0.15375 0  0 0.205 0  0.275 0.205 0  0.55 0.205 0  0.8250000000000001 0.205 0  1.1 0.205 0  1.375 0.205 0  1.65 0.205 0  1.925 0.205 0  2.2 0.205 0  0 0.25625 0  0.275 0.25625 0  0.55 0.25625 0  0.8250000000000001 0.25625 0  1.1 0.25625 0  1.375 0.25625 0  1.65 0.25625 0  1.925 0.25625 0  2.2 0.25625 0  0 0.3075 0  0.275 0.3075 0  0.55 0.3075 0  0.8250000000000001 0.3075 0  1.1 0.3075 0  1.375 0.3075 0  1.65 0.3075 0  1.925 0.3075 0  2.2 0.3075 0  0 0.35875 0  0.275 0.35875 0  0.55 0.35875 0  0.8250000000000001 0.35875 0  1.1 0.35875 0  1.375 0.35875 0  1.65 0.35875 0  1.925 0.35875 0  2.2 0.35875 0  0 0.41 0  0.275 0.41 0  0.55 0.41 0  0.8250000000000001 0.41 0  1.1 0.41 0  1.375 0.41 0  1.65 0.41 0  1.925 0.41 0  2.2 0.41 0  </DataArray>
</Points>
<Cells>
<DataArray  type="UInt32"  Name="connectivity"  format="ascii">0 1 9  1 9 10  1 2 11  1 10 11  2 3 11  3 11 12  3 4 13  3 12 13  4 5 13  5 13 14  5 6 15  5 14 15  6 7 15  7 15 16  7 8 17  7 16 17  9 10 19  9 18 19  10 11 19  11 19 20  11 12 21  11 20 21  12 13 21  13 21 22  13 14 23  13 22 23  14 15 23  15 23 24  15 16 25  15 24 25  16 17 25  17 25 26  18 19 27  19 27 28  19 20 29  19 28 29  20 21 29  21 29 30  21 22 31  21 30 31  22 23 31  23 31 32  23 24 33  23 32 33  24 25 33  25 33 34  25 26 35  25 34 35  27 28 37  27 36 37  28 29 37  29 37 38  29 30 39  29 38 39  30 31 39  31 39 40  31 32 41  31 40 41  32 33 41  33 41 42  33 34 43  33 42 43  34 35 43  35 43 44  36 37 45  37 45 46  37 38 47  37 46 47  38 39 47  39 47 48  39 40 49  39 48 49  40 41 49  41 49 50  41 42 51  41 50 51  42 43 51  43 51 52  43 44 53  43 52 53  45 46 55  45 54 55  46 47 55  47 55 56  47 48 57  47 56 57  48 49 57  49 57 58  49 50 59  49 58 59  50 51 59  51 59 60  51 52 61  51 60 61  52 53 61  53 61 62  54 55 63  55 63 64  55 56 65  55 64 65  56 57 65  57 65 66  57 58 67  57 66 67  58 59 67  59 67 68  59 60 69  59 68 69  60 61 69  61 69 70  61 62 71  61 70 71  63 64 73  63 72 73  64 65 73  65 73 74  65 66 75  65 74 75  66 67 75  67 75 76  67 68 77  67 76 77  68 69 77  69 77 78  69 70 79  69 78 79  70 71 79  71 79 80  </DataArray>
<DataArray  type="UInt32"  Name="offsets"  format="ascii">3 6 9 12 15 18 21 24 27 30 33 36 39 42 45 48 51 54 57 60 63 66 69 72 75 78 81 84 87 90 93 96 99 102 105 108 111 114 117 120 123 126 129 132 135 138 141 144 147 150 153 156 159 162 165 168 171 174 177 180 183 186 189 192 195 198 201 204 207 210 213 216 219 222 225 228 231 234 237 240 243 246 249 252 255 258 261 264 267 270 273 276 279 282 285 288 291 294 297 300 303 306 309 312 315 318 321 324 327 330 333 336 339 342 345 348 351 354 357 360 363 366 369 372 375 378 381 384 </DataArray>
<DataArray  type="UInt8"  Name="types"  format="ascii">5 5 5 5 5 5 5 5 5 5 5 5 5 5 5 5 5 5 5 5 5 5 5 5 5 5 5 5 5 5 5 5 5 5 5 5 5 5 5 5 5 5 5 5 5 5 5 5 5 5 5 5 5 5 5 5 5 5 5 5 5 5 5 5 5 5 5 5 5 5 5 5 5 5 5 5 5 5 5 5 5 5 5 5 5 5 5 5 5 5 5 5 5 5 5 5 5 5 5 5 5 5 5 5 5 5 5 5 5 5 5 5 5 5 5 5 5 5 5 5 5 5 5 5 5 5 5 5 </DataArray>
</Cells>
<PointData  Vectors="f_16"> 
<DataArray  type="Float64"  Name="f_16"  NumberOfComponents="3" format="ascii">2.1071737834878134e-05 -4.2504933491588049e-08 0.0000000000000000e+00  -1.0109107312294962e-06 -4.5396697957184446e-08 0.0000000000000000e+00  1.8255061795107310e-06 -6.5837899354609683e-08 0.0000000000000000e+00  -8.5604383331366817e-06 9.1031377014016788e-08 0.0000000000000000e+00  -4.0335440664953152e-06 -2.1252341581191710e-08 0.0000000000000000e+00  -5.5899676374286860e-06 1.0802385678752066e-07 0.0000000000000000e+00  -7.3224357443701522e-06 2.0602404505433087e-08 0.0000000000000000e+00  -6.8618080779328133e-06 -8.1304848954249548e-08 0.0000000000000000e+00  -3.8937781617864834e-06 3.8359929372529049e-08 0.0000000000000000e+00  6.5624709907504764e-01 2.7578338426894893e-08 0.0000000000000000e+00  6.6323538016764483e-01 -1.5286403626711732e-03 0.0000000000000000e+00  6.6688295951489751e-01 -8.9128195255937638e-04 0.0000000000000000e+00  7.0324189308982388e-01 -8.1455551387066370e-03 0.0000000000000000e+00  8.1285585726080245e-01 -1.7398813351749639e-02 0.0000000000000000e+00  9.0564798302140126e-01 -4.7873218679636781e-03 0.0000000000000000e+00  9.0273167440930713e-01 3.4782529144638582e-03 0.0000000000000000e+00  9.0955824222335335e-01 -5.9242278346501049e-03 0.0000000000000000e+00  8.9068460818173911e-01 8.9767754107586781e-03 0.0000000000000000e+00  1.1249841597929555e+00 -1.3663258762706580e-08 0.0000000000000000e+00  1.1270463588262816e+00 -6.7024298700626148e-04 0.0000000000000000e+00  1.1188091135465579e+00 -4.8933232811194558e-04 0.0000000000000000e+00  1.1177346823130005e+00 -1.9158119899590573e-02 0.0000000000000000e+00  1.1111226379240746e+00 -2.8635174839155172e-02 0.0000000000000000e+00  1.1579200913659471e+00 -1.4187298476446413e-02 0.0000000000000000e+00  1.1858613450969151e+00 3.6385933289477591e-03 0.0000000000000000e+00  1.1726260840939389e+00 -1.0463437080215195e-02 0.0000000000000000e+00  1.1844976786151928e+00 8.2913238202795905e-03 0.0000000000000000e+00  1.4062396915134185e+00 -3.4549291309172972e-08 0.0000000000000000e+00  1.4035262537340638e+00 1.5148395779360287e-03 0.0000000000000000e+00  1.3969478179193782e+00 -9.2718950195248818e-04 0.0000000000000000e+00  1.3802715859108030e+00 -1.3565749511752406e-02 0.0000000000000000e+00  1.3224901722442279e+00 -1.7930068871646547e-02 0.0000000000000000e+00  1.2183525472400532e+00 -1.8051475287525598e-02 0.0000000000000000e+00  1.2084119575028875e+00 2.3349275322224576e-03 0.0000000000000000e+00  1.2052531729062610e+00 -2.7477586855591198e-03 0.0000000000000000e+00  1.2185955153595844e+00 5.4293899522846502e-03 0.0000000000000000e+00  1.4999817184571063e+00 -3.3848899205239635e-08 0.0000000000000000e+00  1.5003018557568466e+00 -1.4599350801694058e-04 0.0000000000000000e+00  1.4872103620927533e+00 -8.4189002752372457e-05 0.0000000000000000e+00  1.4727226346573838e+00 2.0900538054078881e-05 0.0000000000000000e+00  1.3918445625859384e+00 -4.6113189796471539e-05 0.0000000000000000e+00  1.2401570651408451e+00 3.6506607390228465e-05 0.0000000000000000e+00  1.2086759298783958e+00 1.3992693272863303e-04 0.0000000000000000e+00  1.2051035034029245e+00 2.4353005404350418e-04 0.0000000000000000e+00  1.2195139957756702e+00 4.7219157383432678e-05 0.0000000000000000e+00  1.4062364771069993e+00 -2.4703079049968613e-09 0.0000000000000000e+00  1.4034937315487535e+00 -1.6733762001512253e-03 0.0000000000000000e+00  1.3961789891023204e+00 7.2612869691133890e-04 0.0000000000000000e+00  1.3807844449043485e+00 1.3495545330517356e-02 0.0000000000000000e+00  1.3220729902245456e+00 1.7904483359441788e-02 0.0000000000000000e+00  1.2160048077453087e+00 1.8055119978763065e-02 0.0000000000000000e+00  1.2097948948193484e+00 -2.2398084338824710e-03 0.0000000000000000e+00  1.2046646882402470e+00 2.9857285550608679e-03 0.0000000000000000e+00  1.2178571695101497e+00 -5.6123332480331805e-03 0.0000000000000000e+00  1.1249858804235839e+00 1.3540340938615377e-10 0.0000000000000000e+00  1.1267764391658721e+00 2.4086233978723182e-04 0.0000000000000000e+00  1.1200542325083627e+00 3.8473453307127453e-04 0.0000000000000000e+00  1.1164226919719586e+00 1.9127420253125488e-02 0.0000000000000000e+00  1.1106589872992856e+00 2.8711173435639389e-02 0.0000000000000000e+00  1.1582511538042020e+00 1.4186247933047047e-02 0.0000000000000000e+00  1.1838775750943102e+00 -3.5497727665087303e-03 0.0000000000000000e+00  1.1730103261200584e+00 1.0860853672216397e-02 0.0000000000000000e+00  1.1838405617484100e+00 -8.1073884141661060e-03 0.0000000000000000e+00  6.5624169674091404e-01 -3.5735288285025139e-08 0.0000000000000000e+00  6.6190216611226538e-01 1.4122878707754911e-03 0.0000000000000000e+00  6.6534788694160985e-01 8.9122003373539932e-04 0.0000000000000000e+00  7.0203779747548489e-01 8.1285972230461159e-03 0.0000000000000000e+00  8.1198750891274896e-01 1.7360419769508993e-02 0.0000000000000000e+00  9.0416228607247184e-01 4.8002326450320952e-03 0.0000000000000000e+00  9.0261367118673685e-01 -3.3798655261141715e-03 0.0000000000000000e+00  9.0741027005620889e-01 6.0053531870899552e-03 0.0000000000000000e+00  8.9172299194767557e-01 -8.7481052213213492e-03 0.0000000000000000e+00  -6.8463181008875770e-06 -4.9244788271952786e-09 0.0000000000000000e+00  -7.0539648009604142e-06 2.6771703230648724e-08 0.0000000000000000e+00  -4.0209423474826439e-06 6.1797572621362238e-08 0.0000000000000000e+00  -5.8430458996811970e-06 -3.3982504113540553e-08 0.0000000000000000e+00  -3.0097587951454302e-06 -4.6901103074385534e-08 0.0000000000000000e+00  -7.4503740504063746e-06 -1.7531853235410666e-07 0.0000000000000000e+00  -8.3661798799109230e-06 -1.2256471784844267e-07 0.0000000000000000e+00  1.3898757476480762e-06 7.9166814575550931e-08 0.0000000000000000e+00  -1.1375787278095004e-05 -1.5577910695215930e-08 0.0000000000000000e+00  </DataArray> 
</PointData> 
</Piece>
</UnstructuredGrid>
</VTKFile>