<?xml version="1.0"?>
<VTKFile type="UnstructuredGrid"  version="0.1"  >
<UnstructuredGrid>
<Piece  NumberOfPoints="81" NumberOfCells="128">
<Points>
<DataArray  type="Float64"  NumberOfComponents="3"  format="ascii">0 0 0  0.275 0 0  0.55 0 0  0.8250000000000001 0 0  1.1 0 0  1.375 0 0  1.65 0 0  1.925 0 0  2.2 0 0  0 0.05125 0  0.275 0.05125 0  0.55 0.05125 0  0.8250000000000001 0.05125 0  1.1 0.05125 0  1.375 0.05125 0  1.65 0.05125 0  1.925 0.05125 0  2.2 0.05125 0  0 0.1025 0  0.275 0.1025 0  0.55 0.1025 0  0.8250000000000001 0.1025 0  1.1 0.1025 0  1.375 0.1025 0  1.65 0.1025 0  1.925 0.1025 0  2.2 0.1025 0  0 0.15375 0  0.275 0.15375 0  0.55 0.15375 0  0.8250000000000001 0.15375 0  1.1 0.15375 0  1.375 0.15375 0  1.65 0.15375 0  1.925 0.15375 0  2.2 0.15375 0  0 0.205 0  0.275 0.205 0  0.55 0.205 0  0.8250000000000001 0.205 0  1.1 0.205 0  1.375 0.205 0  1.65 0.205 0  1.925 0.205 0  2.2 0.205 0  0 0.25625 0  0.275 0.25625 0  0.55 0.25625 0  0.8250000000000001 0.25625 0  1.1 0.25625 0  1.375 0.25625 0  1.65 0.25625 0  1.925 0.25625 0  2.2 0.25625 0  0 0.3075 0  0.275 0.3075 0  0.55 0.3075 0  0.8250000000000001 0.3075 0  1.1 0.3075 0  1.375 0.3075 0  1.65 0.3075 0  1.925 0.3075 0  2.2 0.3075 0  0 0.35875 0  0.275 0.35875 0  0.55 0.35875 0  0.8250000000000001 0.35875 0  1.1 0.35875 0  1.375 0.35875 0  1.65 0.35875 0  1.925 0.35875 0  2.2 0.35875 0  0 0.41 0  0.275 0.41 0  0.55 0.41 0  0.8250000000000001 0.41 0  1.1 0.41 0  1.375 0.41 0  1.65 0.41 0  1.925 0.41 0  2.2 0.41 0  </DataArray>
</Points>
<Cells>
<DataArray  type="UInt32"  Name="connectivity"  format="ascii">0 1 9  1 9 10  1 2 11  1 10 11  2 3 11  3 11 12  3 4 13  3 12 13  4 5 13  5 13 14  5 6 15  5 14 15  6 7 15  7 15 16  7 8 17  7 16 17  9 10 19  9 18 19  10 11 19  11 19 20  11 12 21  11 20 21  12 13 21  13 21 22  13 14 23  13 22 23  14 15 23  15 23 24  15 16 25  15 24 25  16 17 25  17 25 26  18 19 27  19 27 28  19 20 29  19 28 29  20 21 29  21 29 30  21 22 31  21 30 31  22 23 31  23 31 32  23 24 33  23 32 33  24 25 33  25 33 34  25 26 35  25 34 35  27 28 37  27 36 37  28 29 37  29 37 38  29 30 39  29 38 39  30 31 39  31 39 40  31 32 41  31 40 41  32 33 41  33 41 42  33 34 43  33 42 43  34 35 43  35 43 44  36 37 45  37 45 46  37 38 47  37 46 47  38 39 47  39 47 48  39 40 49  39 48 49  40 41 49  41 49 50  41 42 51  41 50 51  42 43 51  43 51 52  43 44 53  43 52 53  45 46 55  45 54 55  46 47 55  47 55 56  47 48 57  47 56 57  48 49 57  49 57 58  49 50 59  49 58 59  50 51 59  51 59 60  51 52 61  51 60 61  52 53 61  53 61 62  54 55 63  55 63 64  55 56 65  55 64 65  56 57 65  57 65 66  57 58 67  57 66 67  58 59 67  59 67 68  59 60 69  59 68 69  60 61 69  61 69 70  61 62 71  61 70 71  63 64 73  63 72 73  64 65 73  65 73 74  65 66 75  65 74 75  66 67 75  67 75 76  67 68 77  67 76 77  68 69 77  69 77 78  69 70 79  69 78 79  70 71 79  71 79 80  </DataArray>
<DataArray  type="UInt32"  Name="offsets"  format="ascii">3 6 9 12 15 18 21 24 27 30 33 36 39 42 45 48 51 54 57 60 63 66 69 72 75 78 81 84 87 90 93 96 99 102 105 108 111 114 117 120 123 126 129 132 135 138 141 144 147 150 153 156 159 162 165 168 171 174 177 180 183 186 189 192 195 198 201 204 207 210 213 216 219 222 225 228 231 234 237 240 243 246 249 252 255 258 261 264 267 270 273 276 279 282 285 288 291 294 297 300 303 306 309 312 315 318 321 324 327 330 333 336 339 342 345 348 351 354 357 360 363 366 369 372 375 378 381 384 </DataArray>
<DataArray  type="UInt8"  Name="types"  format="ascii">5 5 5 5 5 5 5 5 5 5 5 5 5 5 5 5 5 5 5 5 5 5 5 5 5 5 5 5 5 5 5 5 5 5 5 5 5 5 5 5 5 5 5 5 5 5 5 5 5 5 5 5 5 5 5 5 5 5 5 5 5 5 5 5 5 5 5 5 5 5 5 5 5 5 5 5 5 5 5 5 5 5 5 5 5 5 5 5 5 5 5 5 5 5 5 5 5 5 5 5 5 5 5 5 5 5 5 5 5 5 5 5 5 5 5 5 5 5 5 5 5 5 5 5 5 5 5 5 </DataArray>
</Cells>
<PointData  Vectors="f_16"> 
<DataArray  type="Float64"  Name="f_16"  NumberOfComponents="3" format="ascii">2.0482809859570303e-05 -3.9275905388022160e-09 0.0000000000000000e+00  -1.2012578917005086e-06 -2.9432856052142943e-10 0.0000000000000000e+00  1.0540418672868063e-06 -1.4875602863213120e-09 0.0000000000000000e+00  -8.2889078046462805e-06 1.6927885062755993e-09 0.0000000000000000e+00  -2.9470330674694203e-06 -4.3544676674724978e-10 0.0000000000000000e+00  -4.7718348753386228e-06 9.4507472950694649e-10 0.0000000000000000e+00  -5.1946076784833410e-06 6.8181350509611138e-09 0.0000000000000000e+00  -5.8920021302336129e-06 1.5905341274167113e-08 0.0000000000000000e+00  -1.1892597205935759e-06 1.1110972111625521e-08 0.0000000000000000e+00  6.5624702062945772e-01 1.1209994346194024e-09 0.0000000000000000e+00  6.5701917951430777e-01 -1.2493292997087203e-04 0.0000000000000000e+00  6.5818529501620116e-01 1.8583010794392916e-04 0.0000000000000000e+00  6.5839610951811933e-01 -6.7354945826146861e-05 0.0000000000000000e+00  6.5847361970198304e-01 -3.9407937490120428e-06 0.0000000000000000e+00  6.5881539133283296e-01 -5.5511704378852891e-05 0.0000000000000000e+00  6.5873041871781701e-01 -4.5320341936887760e-05 0.0000000000000000e+00  6.6274892416514919e-01 -9.5550576906904547e-04 0.0000000000000000e+00  6.7872600512924564e-01 -3.5037020960953687e-03 0.0000000000000000e+00  1.1249841003923331e+00 4.1192808737058108e-10 0.0000000000000000e+00  1.1254561435240702e+00 -5.8061730742914482e-04 0.0000000000000000e+00  1.1239444350208356e+00 -1.3277951501388307e-04 0.0000000000000000e+00  1.1264741465797901e+00 -1.9738344543174233e-04 0.0000000000000000e+00  1.1257188626442467e+00 1.7049270692816377e-05 0.0000000000000000e+00  1.1254723481692521e+00 2.6940056181817406e-04 0.0000000000000000e+00  1.1250139977016855e+00 -6.6875031100045552e-05 0.0000000000000000e+00  1.1250957521229841e+00 -1.4687108857655280e-03 0.0000000000000000e+00  1.1253894430132279e+00 -5.1130004490146722e-03 0.0000000000000000e+00  1.4062394873394342e+00 -1.5224590747521846e-09 0.0000000000000000e+00  1.4054449817714347e+00 -1.0811872708305374e-04 0.0000000000000000e+00  1.4064240100731202e+00 -1.2041540338903786e-04 0.0000000000000000e+00  1.4048427519590052e+00 -2.5738896349344757e-04 0.0000000000000000e+00  1.4080311833253623e+00 -7.8129315643553080e-05 0.0000000000000000e+00  1.4059747795541393e+00 2.7450332176551950e-04 0.0000000000000000e+00  1.4049380641232023e+00 7.3141173842180258e-05 0.0000000000000000e+00  1.4035005411897707e+00 -1.1481937285826522e-03 0.0000000000000000e+00  1.3922625810504761e+00 -3.5395080510307103e-03 0.0000000000000000e+00  1.4999818371850171e+00 1.0033957589051251e-09 0.0000000000000000e+00  1.4998936942561620e+00 -1.5371637182855929e-04 0.0000000000000000e+00  1.4984014426796497e+00 -1.7816770111281797e-04 0.0000000000000000e+00  1.5003095360944216e+00 -1.1610683344060602e-04 0.0000000000000000e+00  1.4982299276028452e+00 -4.5256756468047181e-05 0.0000000000000000e+00  1.4988597266951749e+00 1.1859868786691944e-04 0.0000000000000000e+00  1.4976577118287195e+00 3.0443751679018103e-04 0.0000000000000000e+00  1.4957236769943603e+00 4.3276727365152161e-04 0.0000000000000000e+00  1.4807953980186308e+00 2.3006594093208052e-04 0.0000000000000000e+00  1.4062361227024813e+00 2.3598339435113253e-09 0.0000000000000000e+00  1.4053583765630759e+00 -1.0587467448644614e-04 0.0000000000000000e+00  1.4055302889022612e+00 -2.5921730657134487e-04 0.0000000000000000e+00  1.4050925216203967e+00 3.8726636915989852e-06 0.0000000000000000e+00  1.4073492238009084e+00 -2.6057770092757614e-07 0.0000000000000000e+00  1.4036750382092780e+00 -6.4162879405643453e-05 0.0000000000000000e+00  1.4060287237186431e+00 3.6113860300519677e-04 0.0000000000000000e+00  1.4032419774779232e+00 1.6385716085108421e-03 0.0000000000000000e+00  1.3918347336620414e+00 3.7366862774536685e-03 0.0000000000000000e+00  1.1249860105745639e+00 1.0112252944878741e-09 0.0000000000000000e+00  1.1251858977087319e+00 1.5414095065865297e-04 0.0000000000000000e+00  1.1249758690483522e+00 -8.9694799433396880e-05 0.0000000000000000e+00  1.1245448037725512e+00 3.3214833614021937e-06 0.0000000000000000e+00  1.1242636037501863e+00 -3.7198574465429517e-06 0.0000000000000000e+00  1.1252220593940674e+00 -6.1875519498115722e-05 0.0000000000000000e+00  1.1227637766187359e+00 4.4585026664920990e-04 0.0000000000000000e+00  1.1259200244971836e+00 2.0695174700546414e-03 0.0000000000000000e+00  1.1253049995713935e+00 5.5848572988796679e-03 0.0000000000000000e+00  6.5624144530983719e-01 -1.3567376686264056e-09 0.0000000000000000e+00  6.5577359805519786e-01 1.9979157508587749e-05 0.0000000000000000e+00  6.5635906063074534e-01 -2.5536787213343665e-04 0.0000000000000000e+00  6.5643348815114722e-01 1.8181775939886482e-05 0.0000000000000000e+00  6.5647817107941975e-01 -2.8001816195667759e-05 0.0000000000000000e+00  6.5615208881137366e-01 1.3698104907317396e-04 0.0000000000000000e+00  6.5863929999297466e-01 2.7361078824223134e-04 0.0000000000000000e+00  6.6127965178456494e-01 1.1340420480999266e-03 0.0000000000000000e+00  6.8081642741119353e-01 3.9342480502285110e-03 0.0000000000000000e+00  -7.0337282620517845e-06 -1.4474509122982522e-09 0.0000000000000000e+00  -7.2275619976516226e-06 -4.0024733482587751e-10 0.0000000000000000e+00  -4.5958139813707327e-06 -3.2935927961222366e-10 0.0000000000000000e+00  -6.2769481908861876e-06 -6.7213741467809251e-10 0.0000000000000000e+00  -2.2901398058251666e-06 2.6816215413371539e-09 0.0000000000000000e+00  -6.9326535039638389e-06 -3.8848584112358359e-09 0.0000000000000000e+00  -7.0469871973170238e-06 -7.3952748974266651e-10 0.0000000000000000e+00  5.4812741870890901e-07 5.0921937143342003e-09 0.0000000000000000e+00  -1.0210685396696464e-05 -3.2537693674895849e-08 0.0000000000000000e+00  </DataArray> 
</PointData> 
</Piece>
</UnstructuredGrid>
</VTKFile>