<?xml version="1.0"?>
<VTKFile type="UnstructuredGrid"  version="0.1"  >
<UnstructuredGrid>
<Piece  NumberOfPoints="81" NumberOfCells="128">
<Points>
<DataArray  type="Float64"  NumberOfComponents="3"  format="ascii">0 0 0  0.275 0 0  0.55 0 0  0.8250000000000001 0 0  1.1 0 0  1.375 0 0  1.65 0 0  1.925 0 0  2.2 0 0  0 0.05125 0  0.275 0.05125 0  0.55 0.05125 0  0.8250000000000001 0.05125 0  1.1 0.05125 0  1.375 0.05125 0  1.65 0.05125 0  1.925 0.05125 0  2.2 0.05125 0  0 0.1025 0  0.275 0.1025 0  0.55 0.1025 0  0.8250000000000001 0.1025 0  1.1 0.1025 0  1.375 0.1025 0  1.65 0.1025 0  1.925 0.1025 0  2.2 0.1025 0  0 0.15375 0  0.275 0.15375 0  0.55 0.15375 0  0.8250000000000001 0.15375 0  1.1 0.15375 0  1.375 0.15375 0  1.65 0.15375 0  1.925 0.15375 0  2.2 0.15375 0  0 0.205 0  0.275 0.205 0  0.55 0.205 0  0.8250000000000001 0.205 0  1.1 0.205 0  1.375 0.205 0  1.65 0.205 0  1.925 0.205 0  2.2 0.205 0  0 0.25625 0  0.275 0.25625 0  0.55 0.25625 0  0.8250000000000001 0.25625 0  1.1 0.25625 0  1.375 0.25625 0  1.65 0.25625 0  1.925 0.25625 0  2.2 0.25625 0  0 0.3075 0  0.275 0.3075 0  0.55 0.3075 0  0.8250000000000001 0.3075 0  1.1 0.3075 0  1.375 0.3075 0  1.65 0.3075 0  1.925 0.3075 0  2.2 0.3075 0  0 0.35875 0  0.275 0.35875 0  0.55 0.35875 0  0.8250000000000001 0.35875 0  1.1 0.35875 0  1.375 0.35875 0  1.65 0.35875 0  1.925 0.35875 0  2.2 0.35875 0  0 0.41 0  0.275 0.41 0  0.55 0.41 0  0.8250000000000001 0.41 0  1.1 0.41 0  1.375 0.41 0  1.65 0.41 0  1.925 0.41 0  2.2 0.41 0  </DataArray>
</Points>
<Cells>
<DataArray  type="UInt32"  Name="connectivity"  format="ascii">0 1 9  1 9 10  1 2 11  1 10 11  2 3 11  3 11 12  3 4 13  3 12 13  4 5 13  5 13 14  5 6 15  5 14 15  6 7 15  7 15 16  7 8 17  7 16 17  9 10 19  9 18 19  10 11 19  11 19 20  11 12 21  11 20 21  12 13 21  13 21 22  13 14 23  13 22 23  14 15 23  15 23 24  15 16 25  15 24 25  16 17 25  17 25 26  18 19 27  19 27 28  19 20 29  19 28 29  20 21 29  21 29 30  21 22 31  21 30 31  22 23 31  23 31 32  23 24 33  23 32 33  24 25 33  25 33 34  25 26 35  25 34 35  27 28 37  27 36 37  28 29 37  29 37 38  29 30 39  29 38 39  30 31 39  31 39 40  31 32 41  31 40 41  32 33 41  33 41 42  33 34 43  33 42 43  34 35 43  35 43 44  36 37 45  37 45 46  37 38 47  37 46 47  38 39 47  39 47 48  39 40 49  39 48 49  40 41 49  41 49 50  41 42 51  41 50 51  42 43 51  43 51 52  43 44 53  43 52 53  45 46 55  45 54 55  46 47 55  47 55 56  47 48 57  47 56 57  48 49 57  49 57 58  49 50 59  49 58 59  50 51 59  51 59 60  51 52 61  51 60 61  52 53 61  53 61 62  54 55 63  55 63 64  55 56 65  55 64 65  56 57 65  57 65 66  57 58 67  57 66 67  58 59 67  59 67 68  59 60 69  59 68 69  60 61 69  61 69 70  61 62 71  61 70 71  63 64 73  63 72 73  64 65 73  65 73 74  65 66 75  65 74 75  66 67 75  67 75 76  67 68 77  67 76 77  68 69 77  69 77 78  69 70 79  69 78 79  70 71 79  71 79 80  </DataArray>
<DataArray  type="UInt32"  Name="offsets"  format="ascii">3 6 9 12 15 18 21 24 27 30 33 36 39 42 45 48 51 54 57 60 63 66 69 72 75 78 81 84 87 90 93 96 99 102 105 108 111 114 117 120 123 126 129 132 135 138 141 144 147 150 153 156 159 162 165 168 171 174 177 180 183 186 189 192 195 198 201 204 207 210 213 216 219 222 225 228 231 234 237 240 243 246 249 252 255 258 261 264 267 270 273 276 279 282 285 288 291 294 297 300 303 306 309 312 315 318 321 324 327 330 333 336 339 342 345 348 351 354 357 360 363 366 369 372 375 378 381 384 </DataArray>
<DataArray  type="UInt8"  Name="types"  format="ascii">5 5 5 5 5 5 5 5 5 5 5 5 5 5 5 5 5 5 5 5 5 5 5 5 5 5 5 5 5 5 5 5 5 5 5 5 5 5 5 5 5 5 5 5 5 5 5 5 5 5 5 5 5 5 5 5 5 5 5 5 5 5 5 5 5 5 5 5 5 5 5 5 5 5 5 5 5 5 5 5 5 5 5 5 5 5 5 5 5 5 5 5 5 5 5 5 5 5 5 5 5 5 5 5 5 5 5 5 5 5 5 5 5 5 5 5 5 5 5 5 5 5 5 5 5 5 5 5 </DataArray>
</Cells>
<PointData  Vectors="f_16"> 
<DataArray  type="Float64"  Name="f_16"  NumberOfComponents="3" format="ascii">2.0476646811140233e-05 -2.9570394980916288e-09 0.0000000000000000e+00  -1.2151541982613788e-06 -1.2984744469801205e-09 0.0000000000000000e+00  1.0579093254639023e-06 -3.5454107714201893e-09 0.0000000000000000e+00  -8.2481320462644355e-06 2.3147320634600188e-09 0.0000000000000000e+00  -2.9351758691476924e-06 4.3249976089122672e-09 0.0000000000000000e+00  -4.7838775465191301e-06 6.9240687062148032e-09 0.0000000000000000e+00  -5.2701666740390948e-06 6.6783646613413757e-09 0.0000000000000000e+00  -5.9431887460254175e-06 3.0743689513934141e-08 0.0000000000000000e+00  -1.4320139103255659e-06 3.5981218798099615e-08 0.0000000000000000e+00  6.5624701634666038e-01 4.0285986960375769e-09 0.0000000000000000e+00  6.5743550142321427e-01 -1.2307223292037570e-04 0.0000000000000000e+00  6.5808627164537714e-01 1.6964829320566160e-04 0.0000000000000000e+00  6.5790275521846531e-01 1.0043097515480837e-04 0.0000000000000000e+00  6.5805561245637911e-01 -1.0285084129485932e-05 0.0000000000000000e+00  6.5899015003618500e-01 3.6528524158310417e-05 0.0000000000000000e+00  6.6566867323649626e-01 -1.7740825329056352e-03 0.0000000000000000e+00  6.8950711034448209e-01 -4.1964315415230291e-03 0.0000000000000000e+00  7.2606386166224712e-01 -5.0512801644112927e-03 0.0000000000000000e+00  1.1249841188619516e+00 5.9677609711411615e-09 0.0000000000000000e+00  1.1257534700259049e+00 -7.4791434054859401e-04 0.0000000000000000e+00  1.1234856796068531e+00 6.9745853993013069e-05 0.0000000000000000e+00  1.1257393187926059e+00 1.0234094101550706e-06 0.0000000000000000e+00  1.1251508900353953e+00 -1.5740991241921910e-04 0.0000000000000000e+00  1.1250412260682479e+00 1.2305285345643984e-04 0.0000000000000000e+00  1.1257419918188674e+00 -2.6044261800832595e-03 0.0000000000000000e+00  1.1242070398713564e+00 -7.7508847153407359e-03 0.0000000000000000e+00  1.1310556525697617e+00 -1.1033480564020821e-02 0.0000000000000000e+00  1.4062395321653454e+00 2.1208923827069142e-09 0.0000000000000000e+00  1.4055356001603678e+00 -8.8652457642882836e-05 0.0000000000000000e+00  1.4061516011544242e+00 2.9257091223514091e-04 0.0000000000000000e+00  1.4041706571349939e+00 -3.1968241983910218e-04 0.0000000000000000e+00  1.4079631984229763e+00 -2.9769779257813889e-04 0.0000000000000000e+00  1.4072349098635428e+00 -4.5664454583372086e-05 0.0000000000000000e+00  1.4014718345877089e+00 -1.1237900513622891e-03 0.0000000000000000e+00  1.3848045008384706e+00 -5.1200007557043363e-03 0.0000000000000000e+00  1.3556487986754318e+00 -8.5291237945657548e-03 0.0000000000000000e+00  1.4999818555883919e+00 8.8063298615059711e-10 0.0000000000000000e+00  1.5008553405378773e+00 -1.4845422702141088e-04 0.0000000000000000e+00  1.4980159282029202e+00 -1.7432692910784918e-04 0.0000000000000000e+00  1.4988280424022076e+00 -1.0209701327185936e-04 0.0000000000000000e+00  1.4989501833862251e+00 -3.1206486710922622e-05 0.0000000000000000e+00  1.5008595894256112e+00 1.4490906354537570e-04 0.0000000000000000e+00  1.4920621059644623e+00 2.8807502042855966e-04 0.0000000000000000e+00  1.4738434890337715e+00 3.2440718991104276e-04 0.0000000000000000e+00  1.4313201868629697e+00 5.1821036762060068e-05 0.0000000000000000e+00  1.4062361729080626e+00 -1.3462850943970191e-09 0.0000000000000000e+00  1.4054529147577848e+00 -1.1921472138950273e-04 0.0000000000000000e+00  1.4052817685300925e+00 -6.7046387755480947e-04 0.0000000000000000e+00  1.4044474335395598e+00 8.4833229039233264e-05 0.0000000000000000e+00  1.4073138316219664e+00 2.3890631230424013e-04 0.0000000000000000e+00  1.4050130014303597e+00 2.8330827350877739e-04 0.0000000000000000e+00  1.4027019603159616e+00 1.5774456561476714e-03 0.0000000000000000e+00  1.3845907150879821e+00 5.4273427640235405e-03 0.0000000000000000e+00  1.3549560722786693e+00 8.3645966020492526e-03 0.0000000000000000e+00  1.1249860250894628e+00 -3.9474534918889435e-09 0.0000000000000000e+00  1.1254832131599075e+00 3.2168981148002933e-04 0.0000000000000000e+00  1.1245332300681854e+00 -2.8379946576650463e-04 0.0000000000000000e+00  1.1238583622748617e+00 -1.7793845350523249e-04 0.0000000000000000e+00  1.1237802362398992e+00 1.8559626427340975e-04 0.0000000000000000e+00  1.1249587729295674e+00 1.1445419638169534e-04 0.0000000000000000e+00  1.1237048705270447e+00 2.9481140188153980e-03 0.0000000000000000e+00  1.1250568822987372e+00 8.1985638252545304e-03 0.0000000000000000e+00  1.1303244346490569e+00 1.1289516180426345e-02 0.0000000000000000e+00  6.5624147430032354e-01 -4.2530070666037829e-09 0.0000000000000000e+00  6.5617312568190322e-01 1.6063605794763449e-05 0.0000000000000000e+00  6.5626840077601234e-01 -2.3656518285255400e-04 0.0000000000000000e+00  6.5598672679047798e-01 -1.4155778424136082e-04 0.0000000000000000e+00  6.5613927425080854e-01 -1.7268552306540507e-05 0.0000000000000000e+00  6.5650798110159969e-01 4.6979640051386327e-05 0.0000000000000000e+00  6.6580201620326895e-01 1.9902338288532544e-03 0.0000000000000000e+00  6.8796423924358940e-01 4.3276731137738347e-03 0.0000000000000000e+00  7.2756418588959471e-01 5.4108112999487522e-03 0.0000000000000000e+00  -7.0351752366919577e-06 -2.8365455445421100e-09 0.0000000000000000e+00  -7.2443399949331875e-06 1.8660374181705873e-10 0.0000000000000000e+00  -4.5918514084954439e-06 3.3358259952944053e-09 0.0000000000000000e+00  -6.2620911085667498e-06 -1.5005799209104074e-10 0.0000000000000000e+00  -2.2970013964839029e-06 1.0166620623581274e-08 0.0000000000000000e+00  -6.9508372405095496e-06 -1.0310070783644492e-08 0.0000000000000000e+00  -6.9967910903956569e-06 -1.7088404142383554e-09 0.0000000000000000e+00  6.4559735865259691e-07 1.7905103802026897e-08 0.0000000000000000e+00  -1.0256347116677437e-05 -8.7390884968480314e-08 0.0000000000000000e+00  </DataArray> 
</PointData> 
</Piece>
</UnstructuredGrid>
</VTKFile>