<?xml version="1.0"?>
<VTKFile type="UnstructuredGrid"  version="0.1"  >
<UnstructuredGrid>
<Piece  NumberOfPoints="81" NumberOfCells="128">
<Points>
<DataArray  type="Float64"  NumberOfComponents="3"  format="ascii">0 0 0  0.275 0 0  0.55 0 0  0.8250000000000001 0 0  1.1 0 0  1.375 0 0  1.65 0 0  1.925 0 0  2.2 0 0  0 0.05125 0  0.275 0.05125 0  0.55 0.05125 0  0.8250000000000001 0.05125 0  1.1 0.05125 0  1.375 0.05125 0  1.65 0.05125 0  1.925 0.05125 0  2.2 0.05125 0  0 0.1025 0  0.275 0.1025 0  0.55 0.1025 0  0.8250000000000001 0.1025 0  1.1 0.1025 0  1.375 0.1025 0  1.65 0.1025 0  1.925 0.1025 0  2.2 0.1025 0  0 0.15375 0  0.275 0.15375 0  0.55 0.15375 0  0.8250000000000001 0.15375 0  1.1 0.15375 0  1.375 0.15375 0  1.65 0.15375 0  1.925 0.15375 0  2.2 0.15375 0  0 0.205 0  0.275 0.205 0  0.55 0.205 0  0.8250000000000001 0.205 0  1.1 0.205 0  1.375 0.205 0  1.65 0.205 0  1.925 0.205 0  2.2 0.205 0  0 0.25625 0  0.275 0.25625 0  0.55 0.25625 0  0.8250000000000001 0.25625 0  1.1 0.25625 0  1.375 0.25625 0  1.65 0.25625 0  1.925 0.25625 0  2.2 0.25625 0  0 0.3075 0  0.275 0.3075 0  0.55 0.3075 0  0.8250000000000001 0.3075 0  1.1 0.3075 0  1.375 0.3075 0  1.65 0.3075 0  1.925 0.3075 0  2.2 0.3075 0  0 0.35875 0  0.275 0.35875 0  0.55 0.35875 0  0.8250000000000001 0.35875 0  1.1 0.35875 0  1.375 0.35875 0  1.65 0.35875 0  1.925 0.35875 0  2.2 0.35875 0  0 0.41 0  0.275 0.41 0  0.55 0.41 0  0.8250000000000001 0.41 0  1.1 0.41 0  1.375 0.41 0  1.65 0.41 0  1.925 0.41 0  2.2 0.41 0  </DataArray>
</Points>
<Cells>
<DataArray  type="UInt32"  Name="connectivity"  format="ascii">0 1 9  1 9 10  1 2 11  1 10 11  2 3 11  3 11 12  3 4 13  3 12 13  4 5 13  5 13 14  5 6 15  5 14 15  6 7 15  7 15 16  7 8 17  7 16 17  9 10 19  9 18 19  10 11 19  11 19 20  11 12 21  11 20 21  12 13 21  13 21 22  13 14 23  13 22 23  14 15 23  15 23 24  15 16 25  15 24 25  16 17 25  17 25 26  18 19 27  19 27 28  19 20 29  19 28 29  20 21 29  21 29 30  21 22 31  21 30 31  22 23 31  23 31 32  23 24 33  23 32 33  24 25 33  25 33 34  25 26 35  25 34 35  27 28 37  27 36 37  28 29 37  29 37 38  29 30 39  29 38 39  30 31 39  31 39 40  31 32 41  31 40 41  32 33 41  33 41 42  33 34 43  33 42 43  34 35 43  35 43 44  36 37 45  37 45 46  37 38 47  37 46 47  38 39 47  39 47 48  39 40 49  39 48 49  40 41 49  41 49 50  41 42 51  41 50 51  42 43 51  43 51 52  43 44 53  43 52 53  45 46 55  45 54 55  46 47 55  47 55 56  47 48 57  47 56 57  48 49 57  49 57 58  49 50 59  49 58 59  50 51 59  51 59 60  51 52 61  51 60 61  52 53 61  53 61 62  54 55 63  55 63 64  55 56 65  55 64 65  56 57 65  57 65 66  57 58 67  57 66 67  58 59 67  59 67 68  59 60 69  59 68 69  60 61 69  61 69 70  61 62 71  61 70 71  63 64 73  63 72 73  64 65 73  65 73 74  65 66 75  65 74 75  66 67 75  67 75 76  67 68 77  67 76 77  68 69 77  69 77 78  69 70 79  69 78 79  70 71 79  71 79 80  </DataArray>
<DataArray  type="UInt32"  Name="offsets"  format="ascii">3 6 9 12 15 18 21 24 27 30 33 36 39 42 45 48 51 54 57 60 63 66 69 72 75 78 81 84 87 90 93 96 99 102 105 108 111 114 117 120 123 126 129 132 135 138 141 144 147 150 153 156 159 162 165 168 171 174 177 180 183 186 189 192 195 198 201 204 207 210 213 216 219 222 225 228 231 234 237 240 243 246 249 252 255 258 261 264 267 270 273 276 279 282 285 288 291 294 297 300 303 306 309 312 315 318 321 324 327 330 333 336 339 342 345 348 351 354 357 360 363 366 369 372 375 378 381 384 </DataArray>
<DataArray  type="UInt8"  Name="types"  format="ascii">5 5 5 5 5 5 5 5 5 5 5 5 5 5 5 5 5 5 5 5 5 5 5 5 5 5 5 5 5 5 5 5 5 5 5 5 5 5 5 5 5 5 5 5 5 5 5 5 5 5 5 5 5 5 5 5 5 5 5 5 5 5 5 5 5 5 5 5 5 5 5 5 5 5 5 5 5 5 5 5 5 5 5 5 5 5 5 5 5 5 5 5 5 5 5 5 5 5 5 5 5 5 5 5 5 5 5 5 5 5 5 5 5 5 5 5 5 5 5 5 5 5 5 5 5 5 5 5 </DataArray>
</Cells>
<PointData  Vectors="f_16"> 
<DataArray  type="Float64"  Name="f_16"  NumberOfComponents="3" format="ascii">2.0489795732517790e-05 -4.4219845884521904e-09 0.0000000000000000e+00  -1.2013201482156714e-06 -1.8085075358827440e-11 0.0000000000000000e+00  1.0436739153362943e-06 -9.8217484652926908e-10 0.0000000000000000e+00  -8.2926912598794946e-06 9.7888797076608730e-10 0.0000000000000000e+00  -2.9404057378812008e-06 1.2175864218328153e-11 0.0000000000000000e+00  -4.7736648022253257e-06 -8.1615119677666315e-10 0.0000000000000000e+00  -5.1847503052714516e-06 -4.1248236774337645e-10 0.0000000000000000e+00  -5.9223095533646937e-06 -4.7232537281263072e-10 0.0000000000000000e+00  -1.2393737899044599e-06 1.8766836988895748e-10 0.0000000000000000e+00  6.5624702210647001e-01 -2.8443401580963091e-10 0.0000000000000000e+00  6.5712390232262707e-01 -1.2751927494732249e-04 0.0000000000000000e+00  6.5837156895707616e-01 1.3399141377933249e-04 0.0000000000000000e+00  6.5820395089664663e-01 -3.2438239877870378e-05 0.0000000000000000e+00  6.5877254664515128e-01 -2.0175650892475591e-05 0.0000000000000000e+00  6.5863203983692875e-01 3.7361959544786709e-05 0.0000000000000000e+00  6.5835998367942461e-01 1.2799980270924996e-06 0.0000000000000000e+00  6.5750578231863632e-01 2.7497738419815736e-05 0.0000000000000000e+00  6.5751178571051938e-01 -4.3146901464483989e-05 0.0000000000000000e+00  1.1249841010895527e+00 9.9623051235441967e-10 0.0000000000000000e+00  1.1255466871407509e+00 -6.1939413337945657e-04 0.0000000000000000e+00  1.1238781311797168e+00 -1.5429483600106801e-04 0.0000000000000000e+00  1.1264595440278884e+00 -1.3240297132756121e-04 0.0000000000000000e+00  1.1256146084902137e+00 9.6627687731554053e-06 0.0000000000000000e+00  1.1252574227080547e+00 1.8285171108481401e-04 0.0000000000000000e+00  1.1252001869170059e+00 1.5022967889075737e-04 0.0000000000000000e+00  1.1246452590279483e+00 2.1124386991389519e-04 0.0000000000000000e+00  1.1241665723397780e+00 1.4359229701909354e-04 0.0000000000000000e+00  1.4062394803531038e+00 -9.3214409930412546e-11 0.0000000000000000e+00  1.4055812452347363e+00 -1.6291059385740574e-04 0.0000000000000000e+00  1.4068395788599513e+00 -1.4392668140228131e-04 0.0000000000000000e+00  1.4047272220471247e+00 -1.8505657395698368e-04 0.0000000000000000e+00  1.4072121298569633e+00 -1.8021038200728936e-04 0.0000000000000000e+00  1.4061145041256355e+00 9.9927497195520304e-05 0.0000000000000000e+00  1.4057854447917937e+00 1.5936464580306773e-04 0.0000000000000000e+00  1.4056739804010399e+00 2.1023655005180040e-04 0.0000000000000000e+00  1.4055852329230942e+00 1.3036579175101920e-04 0.0000000000000000e+00  1.4999818422295674e+00 8.8518851352756528e-10 0.0000000000000000e+00  1.5000648591349515e+00 -1.5751464816396872e-04 0.0000000000000000e+00  1.4988894568260280e+00 -1.8411243891841949e-04 0.0000000000000000e+00  1.4995829498660835e+00 -1.2687792004909034e-04 0.0000000000000000e+00  1.4973519546596672e+00 -6.5761495903739672e-05 0.0000000000000000e+00  1.4993224880887339e+00 8.2736657947869691e-05 0.0000000000000000e+00  1.4985422126607286e+00 2.8127905788288111e-04 0.0000000000000000e+00  1.4981438631346782e+00 4.5780623084395008e-04 0.0000000000000000e+00  1.4981998247604611e+00 3.4141318152940023e-04 0.0000000000000000e+00  1.4062361156119529e+00 6.5010719484083252e-10 0.0000000000000000e+00  1.4054887672935825e+00 -5.6053931662494453e-05 0.0000000000000000e+00  1.4059355429890072e+00 -2.4020962306824030e-04 0.0000000000000000e+00  1.4049544421781452e+00 -9.0489269963500739e-05 0.0000000000000000e+00  1.4064753000430601e+00 6.1616562894669706e-05 0.0000000000000000e+00  1.4036781172691790e+00 5.2488287300522954e-05 0.0000000000000000e+00  1.4066613407351443e+00 2.0380578321913873e-04 0.0000000000000000e+00  1.4051911833793789e+00 3.5180843192911162e-04 0.0000000000000000e+00  1.4050587401850014e+00 3.5506070302314792e-04 0.0000000000000000e+00  1.1249860144805106e+00 -6.3795704505992187e-11 0.0000000000000000e+00  1.1252780757256009e+00 1.8982359294081509e-04 0.0000000000000000e+00  1.1248844635450765e+00 -7.5969405135731458e-05 0.0000000000000000e+00  1.1244808923196365e+00 -7.4047215775898984e-05 0.0000000000000000e+00  1.1240359501713024e+00 -2.4068154759640382e-05 0.0000000000000000e+00  1.1247761033885897e+00 -1.3494619888223773e-05 0.0000000000000000e+00  1.1225629718111378e+00 2.0813305991199978e-04 0.0000000000000000e+00  1.1250312780892113e+00 4.3367929438221155e-04 0.0000000000000000e+00  1.1240283051219302e+00 5.1648168024846374e-04 0.0000000000000000e+00  6.5624143950542568e-01 -3.2718589304282331e-10 0.0000000000000000e+00  6.5587884010177921e-01 2.1725683097002878e-05 0.0000000000000000e+00  6.5653704635461418e-01 -2.0511997619686548e-04 0.0000000000000000e+00  6.5618706835435481e-01 -2.1166399220427455e-05 0.0000000000000000e+00  6.5664209655625827e-01 -2.0624460937033674e-05 0.0000000000000000e+00  6.5570038279114040e-01 3.6503573695660706e-05 0.0000000000000000e+00  6.5786965967797306e-01 2.1974728484207515e-04 0.0000000000000000e+00  6.5571342955016254e-01 1.7414652061067157e-04 0.0000000000000000e+00  6.5979564169492078e-01 5.7152730717063306e-04 0.0000000000000000e+00  -7.0283440498140505e-06 -8.2453115068236838e-10 0.0000000000000000e+00  -7.2265832588251867e-06 -4.9534055187996930e-10 0.0000000000000000e+00  -4.6029821002251453e-06 -2.0570687629106693e-10 0.0000000000000000e+00  -6.2741255516876534e-06 8.1752441203118013e-10 0.0000000000000000e+00  -2.2754605374282272e-06 1.0890578565346035e-09 0.0000000000000000e+00  -6.9281018900386396e-06 -1.3509433428499936e-09 0.0000000000000000e+00  -7.0865900487381040e-06 -4.0140745815539516e-10 0.0000000000000000e+00  4.7830856984538981e-07 3.4495622237883535e-10 0.0000000000000000e+00  -1.0283613730127869e-05 -4.4994617732522516e-09 0.0000000000000000e+00  </DataArray> 
</PointData> 
</Piece>
</UnstructuredGrid>
</VTKFile>