<?xml version="1.0"?>
<VTKFile type="UnstructuredGrid"  version="0.1"  >
<UnstructuredGrid>
<Piece  NumberOfPoints="81" NumberOfCells="128">
<Points>
<DataArray  type="Float64"  NumberOfComponents="3"  format="ascii">0 0 0  0.275 0 0  0.55 0 0  0.8250000000000001 0 0  1.1 0 0  1.375 0 0  1.65 0 0  1.925 0 0  2.2 0 0  0 0.05125 0  0.275 0.05125 0  0.55 0.05125 0  0.8250000000000001 0.05125 0  1.1 0.05125 0  1.375 0.05125 0  1.65 0.05125 0  1.925 0.05125 0  2.2 0.05125 0  0 0.1025 0  0.275 0.1025 0  0.55 0.1025 0  0.8250000000000001 0.1025 0  1.1 0.1025 0  1.375 0.1025 0  1.65 0.1025 0  1.925 0.1025 0  2.2 0.1025 0  0 0.15375 0  0.275 0.15375 0  0.55 0.15375 0  0.8250000000000001 0.15375 0  1.1 0.15375 0  1.375 0.15375 0  1.65 0.15375 0  1.925 0.15375 0  2.2 0.15375 0  0 0.205 0  0.275 0.205 0  0.55 0.205 0  0.8250000000000001 0.205 0  1.1 0.205 0  1.375 0.205 0  1.65 0.205 0  1.925 0.205 0  2.2 0.205 0  0 0.25625 0  0.275 0.25625 0  0.55 0.25625 0  0.8250000000000001 0.25625 0  1.1 0.25625 0  1.375 0.25625 0  1.65 0.25625 0  1.925 0.25625 0  2.2 0.25625 0  0 0.3075 0  0.275 0.3075 0  0.55 0.3075 0  0.8250000000000001 0.3075 0  1.1 0.3075 0  1.375 0.3075 0  1.65 0.3075 0  1.925 0.3075 0  2.2 0.3075 0  0 0.35875 0  0.275 0.35875 0  0.55 0.35875 0  0.8250000000000001 0.35875 0  1.1 0.35875 0  1.375 0.35875 0  1.65 0.35875 0  1.925 0.35875 0  2.2 0.35875 0  0 0.41 0  0.275 0.41 0  0.55 0.41 0  0.8250000000000001 0.41 0  1.1 0.41 0  1.375 0.41 0  1.65 0.41 0  1.925 0.41 0  2.2 0.41 0  </DataArray>
</Points>
<Cells>
<DataArray  type="UInt32"  Name="connectivity"  format="ascii">0 1 9  1 9 10  1 2 11  1 10 11  2 3 11  3 11 12  3 4 13  3 12 13  4 5 13  5 13 14  5 6 15  5 14 15  6 7 15  7 15 16  7 8 17  7 16 17  9 10 19  9 18 19  10 11 19  11 19 20  11 12 21  11 20 21  12 13 21  13 21 22  13 14 23  13 22 23  14 15 23  15 23 24  15 16 25  15 24 25  16 17 25  17 25 26  18 19 27  19 27 28  19 20 29  19 28 29  20 21 29  21 29 30  21 22 31  21 30 31  22 23 31  23 31 32  23 24 33  23 32 33  24 25 33  25 33 34  25 26 35  25 34 35  27 28 37  27 36 37  28 29 37  29 37 38  29 30 39  29 38 39  30 31 39  31 39 40  31 32 41  31 40 41  32 33 41  33 41 42  33 34 43  33 42 43  34 35 43  35 43 44  36 37 45  37 45 46  37 38 47  37 46 47  38 39 47  39 47 48  39 40 49  39 48 49  40 41 49  41 49 50  41 42 51  41 50 51  42 43 51  43 51 52  43 44 53  43 52 53  45 46 55  45 54 55  46 47 55  47 55 56  47 48 57  47 56 57  48 49 57  49 57 58  49 50 59  49 58 59  50 51 59  51 59 60  51 52 61  51 60 61  52 53 61  53 61 62  54 55 63  55 63 64  55 56 65  55 64 65  56 57 65  57 65 66  57 58 67  57 66 67  58 59 67  59 67 68  59 60 69  59 68 69  60 61 69  61 69 70  61 62 71  61 70 71  63 64 73  63 72 73  64 65 73  65 73 74  65 66 75  65 74 75  66 67 75  67 75 76  67 68 77  67 76 77  68 69 77  69 77 78  69 70 79  69 78 79  70 71 79  71 79 80  </DataArray>
<DataArray  type="UInt32"  Name="offsets"  format="ascii">3 6 9 12 15 18 21 24 27 30 33 36 39 42 45 48 51 54 57 60 63 66 69 72 75 78 81 84 87 90 93 96 99 102 105 108 111 114 117 120 123 126 129 132 135 138 141 144 147 150 153 156 159 162 165 168 171 174 177 180 183 186 189 192 195 198 201 204 207 210 213 216 219 222 225 228 231 234 237 240 243 246 249 252 255 258 261 264 267 270 273 276 279 282 285 288 291 294 297 300 303 306 309 312 315 318 321 324 327 330 333 336 339 342 345 348 351 354 357 360 363 366 369 372 375 378 381 384 </DataArray>
<DataArray  type="UInt8"  Name="types"  format="ascii">5 5 5 5 5 5 5 5 5 5 5 5 5 5 5 5 5 5 5 5 5 5 5 5 5 5 5 5 5 5 5 5 5 5 5 5 5 5 5 5 5 5 5 5 5 5 5 5 5 5 5 5 5 5 5 5 5 5 5 5 5 5 5 5 5 5 5 5 5 5 5 5 5 5 5 5 5 5 5 5 5 5 5 5 5 5 5 5 5 5 5 5 5 5 5 5 5 5 5 5 5 5 5 5 5 5 5 5 5 5 5 5 5 5 5 5 5 5 5 5 5 5 5 5 5 5 5 5 </DataArray>
</Cells>
<PointData  Vectors="f_16"> 
<DataArray  type="Float64"  Name="f_16"  NumberOfComponents="3" format="ascii">2.6995519295773644e-05 -3.9768162488519391e-07 0.0000000000000000e+00  -2.2273373833490528e-07 -3.8485145565619917e-07 0.0000000000000000e+00  -1.1882771364869817e-06 4.4457979093489547e-07 0.0000000000000000e+00  -8.0460824026818940e-06 1.1184795956573071e-07 0.0000000000000000e+00  -6.3670870493528726e-06 3.3243225341373964e-07 0.0000000000000000e+00  -5.9628489792663874e-06 -1.5234449668408181e-07 0.0000000000000000e+00  -9.6710659662457234e-06 1.8054636559160881e-08 0.0000000000000000e+00  -7.1299873851068623e-06 -2.0265677207131669e-07 0.0000000000000000e+00  -5.4227606663228223e-06 -6.1581509290301995e-08 0.0000000000000000e+00  6.5624914941729506e-01 -3.0045455915027941e-07 0.0000000000000000e+00  7.3706640656366174e-01 -7.0805369481209190e-02 0.0000000000000000e+00  1.0124030251442970e+00 2.8949412527743325e-02 0.0000000000000000e+00  1.0360029269444573e+00 -1.7385934478017128e-02 0.0000000000000000e+00  1.0816791135689769e+00 1.7026077982995266e-02 0.0000000000000000e+00  1.0471513719779464e+00 -9.0904056080030569e-03 0.0000000000000000e+00  1.0744347948683550e+00 1.1986813531939530e-02 0.0000000000000000e+00  1.0538233620779189e+00 -5.5524312530275087e-03 0.0000000000000000e+00  1.0714486392971152e+00 1.6756506290845741e-02 0.0000000000000000e+00  1.1249871821647621e+00 1.7027438105878577e-07 0.0000000000000000e+00  1.1007111306956283e+00 -8.4432472962540916e-02 0.0000000000000000e+00  1.0905237639945700e+00 -3.6395171545874690e-02 0.0000000000000000e+00  1.0433610669418649e+00 -1.9034781395109505e-02 0.0000000000000000e+00  1.1575049633597989e+00 8.4602649421581105e-03 0.0000000000000000e+00  1.0678750537245942e+00 -1.1391063535722806e-02 0.0000000000000000e+00  1.1341597517258302e+00 4.0473398897296411e-03 0.0000000000000000e+00  1.0801899973131175e+00 -9.8998303455817768e-03 0.0000000000000000e+00  1.1329806039138794e+00 8.9805590375250550e-03 0.0000000000000000e+00  1.4062408224962670e+00 5.0404448429625112e-07 0.0000000000000000e+00  1.3584624806896277e+00 -1.8738724506248888e-02 0.0000000000000000e+00  1.1146324201193285e+00 -2.3256948111499476e-02 0.0000000000000000e+00  1.0684530064586195e+00 -1.2588726327266249e-03 0.0000000000000000e+00  1.1541411275189111e+00 7.2290483199509530e-03 0.0000000000000000e+00  1.0879984191633341e+00 -2.3152521424724630e-04 0.0000000000000000e+00  1.1283951716643259e+00 3.5904390820023151e-03 0.0000000000000000e+00  1.0965259951801627e+00 3.7463476584526469e-04 0.0000000000000000e+00  1.1344121855832658e+00 5.4011272052992589e-03 0.0000000000000000e+00  1.4999851767826777e+00 9.2232815195458286e-08 0.0000000000000000e+00  1.4731053554910045e+00 -1.5832873816215630e-04 0.0000000000000000e+00  1.1481734929024168e+00 -8.9838752559850597e-06 0.0000000000000000e+00  1.0614320712757364e+00 -1.6501739727573185e-05 0.0000000000000000e+00  1.1515348715044826e+00 2.5554374859410646e-05 0.0000000000000000e+00  1.0874955360246576e+00 8.0559345946596631e-05 0.0000000000000000e+00  1.1303931450036517e+00 1.3610565746562014e-04 0.0000000000000000e+00  1.0955332387969756e+00 -2.9053318997501789e-05 0.0000000000000000e+00  1.1331241134588528e+00 -9.7620604390460304e-05 0.0000000000000000e+00  1.4062384616558792e+00 -3.9933959074373090e-07 0.0000000000000000e+00  1.3585878444353539e+00 1.8629836664106642e-02 0.0000000000000000e+00  1.1133946609118819e+00 2.3233594326728897e-02 0.0000000000000000e+00  1.0693317063103269e+00 1.1407784938119458e-03 0.0000000000000000e+00  1.1537962183935992e+00 -6.9648343299406864e-03 0.0000000000000000e+00  1.0864698853710006e+00 2.3451065561376036e-04 0.0000000000000000e+00  1.1309177171100842e+00 -3.4146452578177403e-03 0.0000000000000000e+00  1.0966427513277957e+00 -3.5874579993500522e-04 0.0000000000000000e+00  1.1335569507957486e+00 -5.7535329910374765e-03 0.0000000000000000e+00  1.1249891110989112e+00 -3.0168786248986395e-07 0.0000000000000000e+00  1.1004460589727305e+00 8.4218980251512268e-02 0.0000000000000000e+00  1.0922646331407557e+00 3.6427053757041514e-02 0.0000000000000000e+00  1.0418873902029151e+00 1.8961411534185783e-02 0.0000000000000000e+00  1.1572210980790436e+00 -8.3714446907373948e-03 0.0000000000000000e+00  1.0690220221273561e+00 1.1338626642971439e-02 0.0000000000000000e+00  1.1328931263645290e+00 -4.0145004168177329e-03 0.0000000000000000e+00  1.0819584293692819e+00 1.0043289353754590e-02 0.0000000000000000e+00  1.1321567828555941e+00 -8.9411621915207861e-03 0.0000000000000000e+00  6.5624321720001921e-01 9.9231725161059549e-08 0.0000000000000000e+00  7.3658497491006192e-01 7.0797526620180157e-02 0.0000000000000000e+00  1.0114039617945372e+00 -2.9028959237585944e-02 0.0000000000000000e+00  1.0353853280616003e+00 1.7435019712044794e-02 0.0000000000000000e+00  1.0816085556761224e+00 -1.7081453183206328e-02 0.0000000000000000e+00  1.0464783948072993e+00 9.0899348900569561e-03 0.0000000000000000e+00  1.0747977385831864e+00 -1.1914229464229089e-02 0.0000000000000000e+00  1.0517353742765525e+00 5.5657213101692905e-03 0.0000000000000000e+00  1.0719736114542817e+00 -1.6492079160920263e-02 0.0000000000000000e+00  -4.7915752552160321e-06 7.7811286191179786e-09 0.0000000000000000e+00  -6.2792197407231205e-06 4.5733620441315629e-07 0.0000000000000000e+00  -6.8807006481933656e-06 -7.7914234561054914e-07 0.0000000000000000e+00  -7.1706987253994075e-06 -2.6010255171230701e-07 0.0000000000000000e+00  -6.3603510730632505e-06 -3.1782059901634024e-07 0.0000000000000000e+00  -8.8501709308076991e-06 1.1225818929928681e-07 0.0000000000000000e+00  -1.1772454394647145e-05 -5.9740629896080413e-08 0.0000000000000000e+00  1.3646319837898412e-06 1.1253835355035620e-07 0.0000000000000000e+00  -1.0373173329749239e-05 8.5546384310078004e-08 0.0000000000000000e+00  </DataArray> 
</PointData> 
</Piece>
</UnstructuredGrid>
</VTKFile>