<?xml version="1.0"?>
<VTKFile type="UnstructuredGrid"  version="0.1"  >
<UnstructuredGrid>
<Piece  NumberOfPoints="81" NumberOfCells="128">
<Points>
<DataArray  type="Float64"  NumberOfComponents="3"  format="ascii">0 0 0  0.275 0 0  0.55 0 0  0.8250000000000001 0 0  1.1 0 0  1.375 0 0  1.65 0 0  1.925 0 0  2.2 0 0  0 0.05125 0  0.275 0.05125 0  0.55 0.05125 0  0.8250000000000001 0.05125 0  1.1 0.05125 0  1.375 0.05125 0  1.65 0.05125 0  1.925 0.05125 0  2.2 0.05125 0  0 0.1025 0  0.275 0.1025 0  0.55 0.1025 0  0.8250000000000001 0.1025 0  1.1 0.1025 0  1.375 0.1025 0  1.65 0.1025 0  1.925 0.1025 0  2.2 0.1025 0  0 0.15375 0  0.275 0.15375 0  0.55 0.15375 0  0.8250000000000001 0.15375 0  1.1 0.15375 0  1.375 0.15375 0  1.65 0.15375 0  1.925 0.15375 0  2.2 0.15375 0  0 0.205 0  0.275 0.205 0  0.55 0.205 0  0.8250000000000001 0.205 0  1.1 0.205 0  1.375 0.205 0  1.65 0.205 0  1.925 0.205 0  2.2 0.205 0  0 0.25625 0  0.275 0.25625 0  0.55 0.25625 0  0.8250000000000001 0.25625 0  1.1 0.25625 0  1.375 0.25625 0  1.65 0.25625 0  1.925 0.25625 0  2.2 0.25625 0  0 0.3075 0  0.275 0.3075 0  0.55 0.3075 0  0.8250000000000001 0.3075 0  1.1 0.3075 0  1.375 0.3075 0  1.65 0.3075 0  1.925 0.3075 0  2.2 0.3075 0  0 0.35875 0  0.275 0.35875 0  0.55 0.35875 0  0.8250000000000001 0.35875 0  1.1 0.35875 0  1.375 0.35875 0  1.65 0.35875 0  1.925 0.35875 0  2.2 0.35875 0  0 0.41 0  0.275 0.41 0  0.55 0.41 0  0.8250000000000001 0.41 0  1.1 0.41 0  1.375 0.41 0  1.65 0.41 0  1.925 0.41 0  2.2 0.41 0  </DataArray>
</Points>
<Cells>
<DataArray  type="UInt32"  Name="connectivity"  format="ascii">0 1 9  1 9 10  1 2 11  1 10 11  2 3 11  3 11 12  3 4 13  3 12 13  4 5 13  5 13 14  5 6 15  5 14 15  6 7 15  7 15 16  7 8 17  7 16 17  9 10 19  9 18 19  10 11 19  11 19 20  11 12 21  11 20 21  12 13 21  13 21 22  13 14 23  13 22 23  14 15 23  15 23 24  15 16 25  15 24 25  16 17 25  17 25 26  18 19 27  19 27 28  19 20 29  19 28 29  20 21 29  21 29 30  21 22 31  21 30 31  22 23 31  23 31 32  23 24 33  23 32 33  24 25 33  25 33 34  25 26 35  25 34 35  27 28 37  27 36 37  28 29 37  29 37 38  29 30 39  29 38 39  30 31 39  31 39 40  31 32 41  31 40 41  32 33 41  33 41 42  33 34 43  33 42 43  34 35 43  35 43 44  36 37 45  37 45 46  37 38 47  37 46 47  38 39 47  39 47 48  39 40 49  39 48 49  40 41 49  41 49 50  41 42 51  41 50 51  42 43 51  43 51 52  43 44 53  43 52 53  45 46 55  45 54 55  46 47 55  47 55 56  47 48 57  47 56 57  48 49 57  49 57 58  49 50 59  49 58 59  50 51 59  51 59 60  51 52 61  51 60 61  52 53 61  53 61 62  54 55 63  55 63 64  55 56 65  55 64 65  56 57 65  57 65 66  57 58 67  57 66 67  58 59 67  59 67 68  59 60 69  59 68 69  60 61 69  61 69 70  61 62 71  61 70 71  63 64 73  63 72 73  64 65 73  65 73 74  65 66 75  65 74 75  66 67 75  67 75 76  67 68 77  67 76 77  68 69 77  69 77 78  69 70 79  69 78 79  70 71 79  71 79 80  </DataArray>
<DataArray  type="UInt32"  Name="offsets"  format="ascii">3 6 9 12 15 18 21 24 27 30 33 36 39 42 45 48 51 54 57 60 63 66 69 72 75 78 81 84 87 90 93 96 99 102 105 108 111 114 117 120 123 126 129 132 135 138 141 144 147 150 153 156 159 162 165 168 171 174 177 180 183 186 189 192 195 198 201 204 207 210 213 216 219 222 225 228 231 234 237 240 243 246 249 252 255 258 261 264 267 270 273 276 279 282 285 288 291 294 297 300 303 306 309 312 315 318 321 324 327 330 333 336 339 342 345 348 351 354 357 360 363 366 369 372 375 378 381 384 </DataArray>
<DataArray  type="UInt8"  Name="types"  format="ascii">5 5 5 5 5 5 5 5 5 5 5 5 5 5 5 5 5 5 5 5 5 5 5 5 5 5 5 5 5 5 5 5 5 5 5 5 5 5 5 5 5 5 5 5 5 5 5 5 5 5 5 5 5 5 5 5 5 5 5 5 5 5 5 5 5 5 5 5 5 5 5 5 5 5 5 5 5 5 5 5 5 5 5 5 5 5 5 5 5 5 5 5 5 5 5 5 5 5 5 5 5 5 5 5 5 5 5 5 5 5 5 5 5 5 5 5 5 5 5 5 5 5 5 5 5 5 5 5 </DataArray>
</Cells>
<PointData  Vectors="f_16"> 
<DataArray  type="Float64"  Name="f_16"  NumberOfComponents="3" format="ascii">2.0484646111062218e-05 -4.9612763762445343e-09 0.0000000000000000e+00  -1.2072524059307942e-06 2.1063923026717641e-10 0.0000000000000000e+00  1.0469330833055302e-06 -1.6459510488560167e-09 0.0000000000000000e+00  -8.2764803199088534e-06 -4.0271440887336002e-11 0.0000000000000000e+00  -2.9361104190696265e-06 2.0869229068270795e-09 0.0000000000000000e+00  -4.7811762230748302e-06 1.9134354503933117e-09 0.0000000000000000e+00  -5.2065161836405678e-06 4.1119546510873813e-09 0.0000000000000000e+00  -5.8780672807403369e-06 1.8245496616512274e-08 0.0000000000000000e+00  -1.1894948649640520e-06 1.4822399860206460e-08 0.0000000000000000e+00  6.5624701824813514e-01 1.0150988582656980e-09 0.0000000000000000e+00  6.5709414207228445e-01 -1.4602691857635295e-04 0.0000000000000000e+00  6.5801650993185767e-01 2.0526907955981715e-04 0.0000000000000000e+00  6.5831727805892459e-01 -3.5968290539833645e-05 0.0000000000000000e+00  6.5830836214831900e-01 3.2677222811438623e-05 0.0000000000000000e+00  6.5887321846173230e-01 -6.8694182309922601e-05 0.0000000000000000e+00  6.5922776814363504e-01 -1.7845977867113601e-04 0.0000000000000000e+00  6.6578387822281215e-01 -1.4457784199350685e-03 0.0000000000000000e+00  6.8605819787302058e-01 -4.0730341903860738e-03 0.0000000000000000e+00  1.1249841074965878e+00 3.9571664984940602e-09 0.0000000000000000e+00  1.1254646794378109e+00 -6.2022525680817549e-04 0.0000000000000000e+00  1.1241365960684651e+00 -8.6895391042127987e-05 0.0000000000000000e+00  1.1262489705147545e+00 -2.3302749881869471e-05 0.0000000000000000e+00  1.1254830355102337e+00 -5.1904139062398644e-05 0.0000000000000000e+00  1.1254155238406116e+00 7.0346628392809894e-05 0.0000000000000000e+00  1.1252069999668870e+00 -1.3755314118156942e-04 0.0000000000000000e+00  1.1250090283413270e+00 -2.3691376508003029e-03 0.0000000000000000e+00  1.1258863926795231e+00 -6.5283675539968816e-03 0.0000000000000000e+00  1.4062394915707472e+00 1.4618026452584207e-09 0.0000000000000000e+00  1.4057136854565413e+00 -1.7423802342907604e-04 0.0000000000000000e+00  1.4065536836522474e+00 4.0638888892582092e-05 0.0000000000000000e+00  1.4040368813592523e+00 -1.1699904263622595e-04 0.0000000000000000e+00  1.4076324145629466e+00 -3.1594919277065300e-04 0.0000000000000000e+00  1.4067795247714698e+00 2.3758707264637350e-04 0.0000000000000000e+00  1.4052680073881894e+00 2.1598712500551839e-04 0.0000000000000000e+00  1.4010367479974544e+00 -1.8347636592587753e-03 0.0000000000000000e+00  1.3868994913273323e+00 -4.5355036395475206e-03 0.0000000000000000e+00  1.4999818474496989e+00 1.1453613019260068e-09 0.0000000000000000e+00  1.5004090074439251e+00 -1.5292180670370154e-04 0.0000000000000000e+00  1.4983812885484560e+00 -1.7495081770288305e-04 0.0000000000000000e+00  1.4990269236903506e+00 -1.1272675551061038e-04 0.0000000000000000e+00  1.4979911729410655e+00 -4.3073590935257229e-05 0.0000000000000000e+00  1.5006120973365462e+00 1.1345638631729392e-04 0.0000000000000000e+00  1.4976711970245216e+00 3.0526825020950858e-04 0.0000000000000000e+00  1.4924127514981778e+00 4.1982238950864136e-04 0.0000000000000000e+00  1.4740561496828566e+00 1.9488813519267451e-04 0.0000000000000000e+00  1.4062361281270603e+00 -6.1436560096031964e-10 0.0000000000000000e+00  1.4056243231498553e+00 -3.8995188665433321e-05 0.0000000000000000e+00  1.4056684796769530e+00 -4.1429897520495521e-04 0.0000000000000000e+00  1.4043055298293052e+00 -1.3206621643768840e-04 0.0000000000000000e+00  1.4069551784500078e+00 2.4079246781211959e-04 0.0000000000000000e+00  1.4044673982884106e+00 -3.1578677136804210e-05 0.0000000000000000e+00  1.4063940216358710e+00 2.3114888570304644e-04 0.0000000000000000e+00  1.4007957995572713e+00 2.3000184562450149e-03 0.0000000000000000e+00  1.3864309900146019e+00 4.6542500666148096e-03 0.0000000000000000e+00  1.1249860184984379e+00 -2.7322317701404896e-09 0.0000000000000000e+00  1.1251919098547514e+00 1.9341542370247667e-04 0.0000000000000000e+00  1.1251693724385110e+00 -1.3333756133308172e-04 0.0000000000000000e+00  1.1243346602424091e+00 -1.6543421177825845e-04 0.0000000000000000e+00  1.1240524723602536e+00 6.8387056082557931e-05 0.0000000000000000e+00  1.1251853211655389e+00 1.3441769409746704e-04 0.0000000000000000e+00  1.1229924697587268e+00 5.1347785370558792e-04 0.0000000000000000e+00  1.1258530839785055e+00 2.9473087387215857e-03 0.0000000000000000e+00  1.1256977930203065e+00 6.9548650381396730e-03 0.0000000000000000e+00  6.5624144762403669e-01 -1.2867910711409812e-09 0.0000000000000000e+00  6.5584803959769211e-01 4.0743580499917557e-05 0.0000000000000000e+00  6.5619207029498983e-01 -2.7402466524456911e-04 0.0000000000000000e+00  6.5635932883038595e-01 -1.2505230940014426e-05 0.0000000000000000e+00  6.5632856119491301e-01 -6.2609312215275575e-05 0.0000000000000000e+00  6.5623982937735070e-01 1.4972544216489391e-04 0.0000000000000000e+00  6.5918525802801087e-01 4.0587441837798224e-04 0.0000000000000000e+00  6.6431358284145525e-01 1.6156776927871487e-03 0.0000000000000000e+00  6.8803094803551557e-01 4.4868064461136819e-03 0.0000000000000000e+00  -7.0314011642663348e-06 -1.3085470947346799e-10 0.0000000000000000e+00  -7.2335070799101998e-06 -6.0345134579000713e-10 0.0000000000000000e+00  -4.6025699497921655e-06 5.1032925661791536e-10 0.0000000000000000e+00  -6.2675915699802883e-06 9.0845731687000599e-10 0.0000000000000000e+00  -2.2820114611159159e-06 1.0613584050331616e-09 0.0000000000000000e+00  -6.9435353597728605e-06 -5.8915581244193350e-09 0.0000000000000000e+00  -7.0394876060974116e-06 2.3476076388970350e-09 0.0000000000000000e+00  5.7964992591576371e-07 8.5142299572363537e-09 0.0000000000000000e+00  -1.0186995413305963e-05 -4.1604434116690560e-08 0.0000000000000000e+00  </DataArray> 
</PointData> 
</Piece>
</UnstructuredGrid>
</VTKFile>