<?xml version="1.0"?>
<VTKFile type="UnstructuredGrid"  version="0.1"  >
<UnstructuredGrid>
<Piece  NumberOfPoints="81" NumberOfCells="128">
<Points>
<DataArray  type="Float64"  NumberOfComponents="3"  format="ascii">0 0 0  0.275 0 0  0.55 0 0  0.8250000000000001 0 0  1.1 0 0  1.375 0 0  1.65 0 0  1.925 0 0  2.2 0 0  0 0.05125 0  0.275 0.05125 0  0.55 0.05125 0  0.8250000000000001 0.05125 0  1.1 0.05125 0  1.375 0.05125 0  1.65 0.05125 0  1.925 0.05125 0  2.2 0.05125 0  0 0.1025 0  0.275 0.1025 0  0.55 0.1025 0  0.8250000000000001 0.1025 0  1.1 0.1025 0  1.375 0.1025 0  1.65 0.1025 0  1.925 0.1025 0  2.2 0.1025 0  0 0.15375 0  0.275 0.15375 0  0.55 0.15375 0  0.8250000000000001 0.15375 0  1.1 0.15375 0  1.375 0.15375 0  1.65 0.15375 0  1.925 0.15375 0  2.2 0.15375 0  0 0.205 0  0.275 0.205 0  0.55 0.205 0  0.8250000000000001 0.205 0  1.1 0.205 0  1.375 0.205 0  1.65 0.205 0  1.925 0.205 0  2.2 0.205 0  0 0.25625 0  0.275 0.25625 0  0.55 0.25625 0  0.8250000000000001 0.25625 0  1.1 0.25625 0  1.375 0.25625 0  1.65 0.25625 0  1.925 0.25625 0  2.2 0.25625 0  0 0.3075 0  0.275 0.3075 0  0.55 0.3075 0  0.8250000000000001 0.3075 0  1.1 0.3075 0  1.375 0.3075 0  1.65 0.3075 0  1.925 0.3075 0  2.2 0.3075 0  0 0.35875 0  0.275 0.35875 0  0.55 0.35875 0  0.8250000000000001 0.35875 0  1.1 0.35875 0  1.375 0.35875 0  1.65 0.35875 0  1.925 0.35875 0  2.2 0.35875 0  0 0.41 0  0.275 0.41 0  0.55 0.41 0  0.8250000000000001 0.41 0  1.1 0.41 0  1.375 0.41 0  1.65 0.41 0  1.925 0.41 0  2.2 0.41 0  </DataArray>
</Points>
<Cells>
<DataArray  type="UInt32"  Name="connectivity"  format="ascii">0 1 9  1 9 10  1 2 11  1 10 11  2 3 11  3 11 12  3 4 13  3 12 13  4 5 13  5 13 14  5 6 15  5 14 15  6 7 15  7 15 16  7 8 17  7 16 17  9 10 19  9 18 19  10 11 19  11 19 20  11 12 21  11 20 21  12 13 21  13 21 22  13 14 23  13 22 23  14 15 23  15 23 24  15 16 25  15 24 25  16 17 25  17 25 26  18 19 27  19 27 28  19 20 29  19 28 29  20 21 29  21 29 30  21 22 31  21 30 31  22 23 31  23 31 32  23 24 33  23 32 33  24 25 33  25 33 34  25 26 35  25 34 35  27 28 37  27 36 37  28 29 37  29 37 38  29 30 39  29 38 39  30 31 39  31 39 40  31 32 41  31 40 41  32 33 41  33 41 42  33 34 43  33 42 43  34 35 43  35 43 44  36 37 45  37 45 46  37 38 47  37 46 47  38 39 47  39 47 48  39 40 49  39 48 49  40 41 49  41 49 50  41 42 51  41 50 51  42 43 51  43 51 52  43 44 53  43 52 53  45 46 55  45 54 55  46 47 55  47 55 56  47 48 57  47 56 57  48 49 57  49 57 58  49 50 59  49 58 59  50 51 59  51 59 60  51 52 61  51 60 61  52 53 61  53 61 62  54 55 63  55 63 64  55 56 65  55 64 65  56 57 65  57 65 66  57 58 67  57 66 67  58 59 67  59 67 68  59 60 69  59 68 69  60 61 69  61 69 70  61 62 71  61 70 71  63 64 73  63 72 73  64 65 73  65 73 74  65 66 75  65 74 75  66 67 75  67 75 76  67 68 77  67 76 77  68 69 77  69 77 78  69 70 79  69 78 79  70 71 79  71 79 80  </DataArray>
<DataArray  type="UInt32"  Name="offsets"  format="ascii">3 6 9 12 15 18 21 24 27 30 33 36 39 42 45 48 51 54 57 60 63 66 69 72 75 78 81 84 87 90 93 96 99 102 105 108 111 114 117 120 123 126 129 132 135 138 141 144 147 150 153 156 159 162 165 168 171 174 177 180 183 186 189 192 195 198 201 204 207 210 213 216 219 222 225 228 231 234 237 240 243 246 249 252 255 258 261 264 267 270 273 276 279 282 285 288 291 294 297 300 303 306 309 312 315 318 321 324 327 330 333 336 339 342 345 348 351 354 357 360 363 366 369 372 375 378 381 384 </DataArray>
<DataArray  type="UInt8"  Name="types"  format="ascii">5 5 5 5 5 5 5 5 5 5 5 5 5 5 5 5 5 5 5 5 5 5 5 5 5 5 5 5 5 5 5 5 5 5 5 5 5 5 5 5 5 5 5 5 5 5 5 5 5 5 5 5 5 5 5 5 5 5 5 5 5 5 5 5 5 5 5 5 5 5 5 5 5 5 5 5 5 5 5 5 5 5 5 5 5 5 5 5 5 5 5 5 5 5 5 5 5 5 5 5 5 5 5 5 5 5 5 5 5 5 5 5 5 5 5 5 5 5 5 5 5 5 5 5 5 5 5 5 </DataArray>
</Cells>
<PointData  Vectors="f_16"> 
<DataArray  type="Float64"  Name="f_16"  NumberOfComponents="3" format="ascii">2.0562345057777684e-05 -3.9363133344871576e-09 0.0000000000000000e+00  -1.1941564392307451e-06 -3.0755471676958402e-09 0.0000000000000000e+00  1.1160887400902325e-06 3.1866426700950516e-10 0.0000000000000000e+00  -8.1989339870427304e-06 4.0982465925218014e-09 0.0000000000000000e+00  -2.9020825405465089e-06 7.1809625487888980e-10 0.0000000000000000e+00  -4.8230089261343384e-06 3.4650319719173570e-08 0.0000000000000000e+00  -5.8442274983205176e-06 4.5976551069570430e-08 0.0000000000000000e+00  -6.5126686187082964e-06 3.5869579019716873e-08 0.0000000000000000e+00  -2.6471204068841780e-06 3.8670747296788517e-08 0.0000000000000000e+00  6.5624707087258971e-01 -7.4963611226633946e-09 0.0000000000000000e+00  6.5749697637687610e-01 -1.2758831374767304e-04 0.0000000000000000e+00  6.5767995252119527e-01 2.8594330823550546e-04 0.0000000000000000e+00  6.5835259776766752e-01 -1.3718207781460078e-04 0.0000000000000000e+00  6.6192347459734879e-01 -6.8778083485817329e-04 0.0000000000000000e+00  6.8282517624035610e-01 -4.1148314151762313e-03 0.0000000000000000e+00  7.2686374350503613e-01 -7.8288559426347108e-03 0.0000000000000000e+00  7.8169204418258942e-01 -6.5876998809499439e-03 0.0000000000000000e+00  8.1548595807609525e-01 5.5008129908627322e-04 0.0000000000000000e+00  1.1249842205294613e+00 -1.4086063552632763e-08 0.0000000000000000e+00  1.1247748102924997e+00 -3.9410710671297883e-04 0.0000000000000000e+00  1.1237265753059211e+00 -2.6530519246210953e-04 0.0000000000000000e+00  1.1281091081467529e+00 -6.6668692018015028e-04 0.0000000000000000e+00  1.1276138876612225e+00 -1.0819948720107565e-03 0.0000000000000000e+00  1.1243216163032892e+00 -7.0849889805661053e-03 0.0000000000000000e+00  1.1213518876104709e+00 -1.4684338965121153e-02 0.0000000000000000e+00  1.1337670254596623e+00 -1.5747711845671523e-02 0.0000000000000000e+00  1.1705046725931056e+00 -7.4687820386523281e-03 0.0000000000000000e+00  1.4062397156388136e+00 -9.7356064904895345e-09 0.0000000000000000e+00  1.4047426880532192e+00 -9.7068917502805691e-05 0.0000000000000000e+00  1.4081905142881630e+00 -5.1676627767500961e-04 0.0000000000000000e+00  1.4076491552190593e+00 -1.8537025550645640e-04 0.0000000000000000e+00  1.4058262642596375e+00 1.3802759195411454e-04 0.0000000000000000e+00  1.3922486552163991e+00 -4.5994406573092892e-03 0.0000000000000000e+00  1.3614398885114358e+00 -1.0805882816444696e-02 0.0000000000000000e+00  1.3151796779473235e+00 -1.0642334037738753e-02 0.0000000000000000e+00  1.2696637584090975e+00 -1.0571218286994324e-02 0.0000000000000000e+00  1.4999819604221190e+00 -1.4751482838558964e-09 0.0000000000000000e+00  1.4985533678703988e+00 -1.4712416716405709e-04 0.0000000000000000e+00  1.5012310099714676e+00 -1.6004233108500690e-04 0.0000000000000000e+00  1.5031407140116264e+00 -8.4208671122720227e-05 0.0000000000000000e+00  1.4933914772514520e+00 2.1577110547415846e-05 0.0000000000000000e+00  1.4845711347048063e+00 1.7201865156735792e-04 0.0000000000000000e+00  1.4418195684898352e+00 1.4633431810629694e-04 0.0000000000000000e+00  1.3842859891078267e+00 1.3726820250842777e-04 0.0000000000000000e+00  1.2971759001933845e+00 6.8857016258246954e-05 0.0000000000000000e+00  1.4062363770339470e+00 1.0038427159823627e-08 0.0000000000000000e+00  1.4046607962774540e+00 -1.0447258082785512e-04 0.0000000000000000e+00  1.4072861521656510e+00 1.5370273126900902e-04 0.0000000000000000e+00  1.4079667734691204e+00 -2.4764315085102633e-06 0.0000000000000000e+00  1.4053668321911017e+00 -7.6885550196507176e-05 0.0000000000000000e+00  1.3902023028253425e+00 4.8271299387860848e-03 0.0000000000000000e+00  1.3626977006973646e+00 1.0962980416443776e-02 0.0000000000000000e+00  1.3146570940738445e+00 1.0712028152444486e-02 0.0000000000000000e+00  1.2685587513149319e+00 1.0507354379703831e-02 0.0000000000000000e+00  1.1249861006695387e+00 1.6066794320928377e-08 0.0000000000000000e+00  1.1244864423371408e+00 -3.2081727204477943e-05 0.0000000000000000e+00  1.1247807853989138e+00 5.9557552750608284e-05 0.0000000000000000e+00  1.1262320999437774e+00 5.0764883951853648e-04 0.0000000000000000e+00  1.1265033563093265e+00 1.1641204429854246e-03 0.0000000000000000e+00  1.1246829490103829e+00 7.3497460077888641e-03 0.0000000000000000e+00  1.1194260222234749e+00 1.4848976474124372e-02 0.0000000000000000e+00  1.1340597781706365e+00 1.5981472310440600e-02 0.0000000000000000e+00  1.1692371523153546e+00 7.7615877865600475e-03 0.0000000000000000e+00  6.5624161143541315e-01 6.6496566425445390e-09 0.0000000000000000e+00  6.5621544491780615e-01 2.1497378609926377e-05 0.0000000000000000e+00  6.5586457396994824e-01 -3.5139659188537092e-04 0.0000000000000000e+00  6.5651088666859425e-01 9.5402716447991461e-05 0.0000000000000000e+00  6.6021496732927598e-01 6.7547620387175037e-04 0.0000000000000000e+00  6.8078291395392976e-01 4.2004951120066534e-03 0.0000000000000000e+00  7.2710183868111511e-01 7.9736331814978193e-03 0.0000000000000000e+00  7.7971574582189784e-01 6.6538361025061943e-03 0.0000000000000000e+00  8.1667197150690418e-01 -1.6879888820753346e-04 0.0000000000000000e+00  -6.9733113104120700e-06 -4.9778362440422663e-09 0.0000000000000000e+00  -7.2343090269182666e-06 -1.5958250140427348e-09 0.0000000000000000e+00  -4.5812001776592699e-06 -3.7393541756110280e-09 0.0000000000000000e+00  -6.2438706917790909e-06 7.1172259535442863e-09 0.0000000000000000e+00  -2.2458273214531915e-06 4.7661314508881817e-08 0.0000000000000000e+00  -6.8915690935775797e-06 -7.2853422306039417e-09 0.0000000000000000e+00  -7.4676104666512327e-06 -3.7230425338121460e-08 0.0000000000000000e+00  6.9545034251388697e-07 1.2762734457229382e-08 0.0000000000000000e+00  -1.0796629472996659e-05 -1.2138508316165320e-07 0.0000000000000000e+00  </DataArray> 
</PointData> 
</Piece>
</UnstructuredGrid>
</VTKFile>