<?xml version="1.0"?>
<VTKFile type="UnstructuredGrid"  version="0.1"  >
<UnstructuredGrid>
<Piece  NumberOfPoints="81" NumberOfCells="128">
<Points>
<DataArray  type="Float64"  NumberOfComponents="3"  format="ascii">0 0 0  0.275 0 0  0.55 0 0  0.8250000000000001 0 0  1.1 0 0  1.375 0 0  1.65 0 0  1.925 0 0  2.2 0 0  0 0.05125 0  0.275 0.05125 0  0.55 0.05125 0  0.8250000000000001 0.05125 0  1.1 0.05125 0  1.375 0.05125 0  1.65 0.05125 0  1.925 0.05125 0  2.2 0.05125 0  0 0.1025 0  0.275 0.1025 0  0.55 0.1025 0  0.8250000000000001 0.1025 0  1.1 0.1025 0  1.375 0.1025 0  1.65 0.1025 0  1.925 0.1025 0  2.2 0.1025 0  0 0.15375 0  0.275 0.15375 0  0.55 0.15375 0  0.8250000000000001 0.15375 0  1.1 0.15375 0  1.375 0.15375 0  1.65 0.15375 0  1.925 0.15375 0  2.2 0.15375 0  0 0.205 0  0.275 0.205 0  0.55 0.205 0  0.8250000000000001 0.205 0  1.1 0.205 0  1.375 0.205 0  1.65 0.205 0  1.925 0.205 0  2.2 0.205 0  0 0.25625 0  0.275 0.25625 0  0.55 0.25625 0  0.8250000000000001 0.25625 0  1.1 0.25625 0  1.375 0.25625 0  1.65 0.25625 0  1.925 0.25625 0  2.2 0.25625 0  0 0.3075 0  0.275 0.3075 0  0.55 0.3075 0  0.8250000000000001 0.3075 0  1.1 0.3075 0  1.375 0.3075 0  1.65 0.3075 0  1.925 0.3075 0  2.2 0.3075 0  0 0.35875 0  0.275 0.35875 0  0.55 0.35875 0  0.8250000000000001 0.35875 0  1.1 0.35875 0  1.375 0.35875 0  1.65 0.35875 0  1.925 0.35875 0  2.2 0.35875 0  0 0.41 0  0.275 0.41 0  0.55 0.41 0  0.8250000000000001 0.41 0  1.1 0.41 0  1.375 0.41 0  1.65 0.41 0  1.925 0.41 0  2.2 0.41 0  </DataArray>
</Points>
<Cells>
<DataArray  type="UInt32"  Name="connectivity"  format="ascii">0 1 9  1 9 10  1 2 11  1 10 11  2 3 11  3 11 12  3 4 13  3 12 13  4 5 13  5 13 14  5 6 15  5 14 15  6 7 15  7 15 16  7 8 17  7 16 17  9 10 19  9 18 19  10 11 19  11 19 20  11 12 21  11 20 21  12 13 21  13 21 22  13 14 23  13 22 23  14 15 23  15 23 24  15 16 25  15 24 25  16 17 25  17 25 26  18 19 27  19 27 28  19 20 29  19 28 29  20 21 29  21 29 30  21 22 31  21 30 31  22 23 31  23 31 32  23 24 33  23 32 33  24 25 33  25 33 34  25 26 35  25 34 35  27 28 37  27 36 37  28 29 37  29 37 38  29 30 39  29 38 39  30 31 39  31 39 40  31 32 41  31 40 41  32 33 41  33 41 42  33 34 43  33 42 43  34 35 43  35 43 44  36 37 45  37 45 46  37 38 47  37 46 47  38 39 47  39 47 48  39 40 49  39 48 49  40 41 49  41 49 50  41 42 51  41 50 51  42 43 51  43 51 52  43 44 53  43 52 53  45 46 55  45 54 55  46 47 55  47 55 56  47 48 57  47 56 57  48 49 57  49 57 58  49 50 59  49 58 59  50 51 59  51 59 60  51 52 61  51 60 61  52 53 61  53 61 62  54 55 63  55 63 64  55 56 65  55 64 65  56 57 65  57 65 66  57 58 67  57 66 67  58 59 67  59 67 68  59 60 69  59 68 69  60 61 69  61 69 70  61 62 71  61 70 71  63 64 73  63 72 73  64 65 73  65 73 74  65 66 75  65 74 75  66 67 75  67 75 76  67 68 77  67 76 77  68 69 77  69 77 78  69 70 79  69 78 79  70 71 79  71 79 80  </DataArray>
<DataArray  type="UInt32"  Name="offsets"  format="ascii">3 6 9 12 15 18 21 24 27 30 33 36 39 42 45 48 51 54 57 60 63 66 69 72 75 78 81 84 87 90 93 96 99 102 105 108 111 114 117 120 123 126 129 132 135 138 141 144 147 150 153 156 159 162 165 168 171 174 177 180 183 186 189 192 195 198 201 204 207 210 213 216 219 222 225 228 231 234 237 240 243 246 249 252 255 258 261 264 267 270 273 276 279 282 285 288 291 294 297 300 303 306 309 312 315 318 321 324 327 330 333 336 339 342 345 348 351 354 357 360 363 366 369 372 375 378 381 384 </DataArray>
<DataArray  type="UInt8"  Name="types"  format="ascii">5 5 5 5 5 5 5 5 5 5 5 5 5 5 5 5 5 5 5 5 5 5 5 5 5 5 5 5 5 5 5 5 5 5 5 5 5 5 5 5 5 5 5 5 5 5 5 5 5 5 5 5 5 5 5 5 5 5 5 5 5 5 5 5 5 5 5 5 5 5 5 5 5 5 5 5 5 5 5 5 5 5 5 5 5 5 5 5 5 5 5 5 5 5 5 5 5 5 5 5 5 5 5 5 5 5 5 5 5 5 5 5 5 5 5 5 5 5 5 5 5 5 5 5 5 5 5 5 </DataArray>
</Cells>
<PointData  Vectors="f_16"> 
<DataArray  type="Float64"  Name="f_16"  NumberOfComponents="3" format="ascii">2.2022187357073009e-05 -1.3900712753367764e-07 0.0000000000000000e+00  -7.6857765090753224e-07 -9.1263738113080823e-08 0.0000000000000000e+00  1.1404377872509243e-06 -7.3690052101790368e-08 0.0000000000000000e+00  -8.9572703255552932e-06 5.5974021328961255e-09 0.0000000000000000e+00  -4.8755894695331532e-06 -3.4364383172434443e-08 0.0000000000000000e+00  -5.8307152742747623e-06 5.5755603047140761e-08 0.0000000000000000e+00  -8.1294737501297236e-06 -1.9107723940487397e-07 0.0000000000000000e+00  -7.0662537473832710e-06 2.1473393767538289e-07 0.0000000000000000e+00  -4.3925639452472210e-06 4.0442986877280715e-08 0.0000000000000000e+00  6.5624752198761038e-01 8.6011161670783089e-08 0.0000000000000000e+00  6.5531438274317744e-01 8.5776319799091402e-04 0.0000000000000000e+00  7.4924448732444271e-01 -2.1903806397837074e-02 0.0000000000000000e+00  8.9568344934126620e-01 -1.7604627636619935e-02 0.0000000000000000e+00  1.0053987644534470e+00 -7.0064189936247089e-03 0.0000000000000000e+00  9.7609942447256970e-01 1.1103778041693876e-02 0.0000000000000000e+00  1.0082943103332724e+00 -1.2724186579516669e-02 0.0000000000000000e+00  9.5233787108452306e-01 2.9644126535915273e-03 0.0000000000000000e+00  1.0089204703346333e+00 -1.5035222828096469e-02 0.0000000000000000e+00  1.1249845263315563e+00 1.3884388476916386e-07 0.0000000000000000e+00  1.1330182164525024e+00 -8.3683743780585320e-04 0.0000000000000000e+00  1.1065152058563128e+00 -1.4343834687959115e-02 0.0000000000000000e+00  1.0767250937599078e+00 -6.0448944218740357e-02 0.0000000000000000e+00  1.1535553158226317e+00 -1.7121121553038225e-03 0.0000000000000000e+00  1.1785019625189694e+00 1.5470712617567764e-02 0.0000000000000000e+00  1.1460279254949399e+00 -9.6530863158170582e-03 0.0000000000000000e+00  1.1499067743011866e+00 1.5405045034814704e-02 0.0000000000000000e+00  1.1654865395162290e+00 -1.1017917811024592e-02 0.0000000000000000e+00  1.4062400989957011e+00 1.1345060556407332e-07 0.0000000000000000e+00  1.4139165145012353e+00 -1.7513537923323065e-03 0.0000000000000000e+00  1.3651188002038550e+00 -6.8749279992326448e-03 0.0000000000000000e+00  1.2109135940896905e+00 -4.6365264595283701e-02 0.0000000000000000e+00  1.1538176774351365e+00 3.5835386933500551e-04 0.0000000000000000e+00  1.1934707226338686e+00 3.2226652324389795e-03 0.0000000000000000e+00  1.1488719327428560e+00 -9.5872002576658372e-03 0.0000000000000000e+00  1.1644126384988456e+00 1.5389467734769242e-03 0.0000000000000000e+00  1.1724137421573226e+00 -1.0197290824668389e-02 0.0000000000000000e+00  1.4999822023765352e+00 -6.4778729468905949e-08 0.0000000000000000e+00  1.5049447011783916e+00 -1.2105002596512483e-04 0.0000000000000000e+00  1.4428677721306264e+00 -7.4060930077170492e-05 0.0000000000000000e+00  1.2702696336477775e+00 -5.1895129591358868e-05 0.0000000000000000e+00  1.1483621325110229e+00 -1.4942644509589250e-05 0.0000000000000000e+00  1.1972686593885620e+00 2.9734966148036913e-05 0.0000000000000000e+00  1.1510289222712655e+00 1.9974893623393193e-04 0.0000000000000000e+00  1.1640640556358217e+00 1.5727783267880651e-04 0.0000000000000000e+00  1.1710343297452832e+00 -8.8793339878092692e-06 0.0000000000000000e+00  1.4062371708919335e+00 -1.2944173922407482e-07 0.0000000000000000e+00  1.4140735309833541e+00 1.6430699481936090e-03 0.0000000000000000e+00  1.3644705036136391e+00 6.8210876382045569e-03 0.0000000000000000e+00  1.2111626549229044e+00 4.6284944385468069e-02 0.0000000000000000e+00  1.1535549892904713e+00 -3.4344716300097023e-04 0.0000000000000000e+00  1.1915282955703945e+00 -3.1391599756237505e-03 0.0000000000000000e+00  1.1503402455041194e+00 9.8166727958090300e-03 0.0000000000000000e+00  1.1645191242156794e+00 -1.4551146478131165e-03 0.0000000000000000e+00  1.1723018024566749e+00 1.0023218181602730e-02 0.0000000000000000e+00  1.1249861567781190e+00 -2.0998968482299755e-07 0.0000000000000000e+00  1.1328880137885247e+00 4.2774975493216008e-04 0.0000000000000000e+00  1.1080800289717172e+00 1.4313008182681284e-02 0.0000000000000000e+00  1.0756886189863413e+00 6.0280214482845082e-02 0.0000000000000000e+00  1.1530178071803057e+00 1.7053990681880178e-03 0.0000000000000000e+00  1.1789810606285509e+00 -1.5395293308369412e-02 0.0000000000000000e+00  1.1445979712252412e+00 9.7733080750867108e-03 0.0000000000000000e+00  1.1509437421104660e+00 -1.5276817528053347e-02 0.0000000000000000e+00  1.1649998285086300e+00 1.1172349708941785e-02 0.0000000000000000e+00  6.5624208666615502e-01 -8.5580169698444291e-08 0.0000000000000000e+00  6.5414891594819602e-01 -9.4285455167141690e-04 0.0000000000000000e+00  7.4817452239603677e-01 2.1951442465500275e-02 0.0000000000000000e+00  8.9489390965784676e-01 1.7537497574735248e-02 0.0000000000000000e+00  1.0047192399925899e+00 7.0517010025053888e-03 0.0000000000000000e+00  9.7477659232548275e-01 -1.1085850561331517e-02 0.0000000000000000e+00  1.0086123663753144e+00 1.2844243157771461e-02 0.0000000000000000e+00  9.5016917339962825e-01 -2.9413429262986845e-03 0.0000000000000000e+00  1.0095882928885966e+00 1.5284925218126369e-02 0.0000000000000000e+00  -6.3818142347506544e-06 7.1104874999943960e-08 0.0000000000000000e+00  -6.7393885165689652e-06 5.5871421710199986e-08 0.0000000000000000e+00  -4.6541227226294565e-06 1.4345402738416600e-07 0.0000000000000000e+00  -6.1738306221989159e-06 2.3986263624235651e-09 0.0000000000000000e+00  -4.1747776664117100e-06 9.9042241512677089e-08 0.0000000000000000e+00  -8.3195826945942521e-06 -7.7605791867178789e-08 0.0000000000000000e+00  -9.4703373957457913e-06 1.8564614162352285e-07 0.0000000000000000e+00  1.6241090023431831e-06 -1.7673869131239813e-07 0.0000000000000000e+00  -1.0938678128036344e-05 -6.8662848437478702e-08 0.0000000000000000e+00  </DataArray> 
</PointData> 
</Piece>
</UnstructuredGrid>
</VTKFile>