<?xml version="1.0"?>
<VTKFile type="UnstructuredGrid"  version="0.1"  >
<UnstructuredGrid>
<Piece  NumberOfPoints="81" NumberOfCells="128">
<Points>
<DataArray  type="Float64"  NumberOfComponents="3"  format="ascii">0 0 0  0.275 0 0  0.55 0 0  0.8250000000000001 0 0  1.1 0 0  1.375 0 0  1.65 0 0  1.925 0 0  2.2 0 0  0 0.05125 0  0.275 0.05125 0  0.55 0.05125 0  0.8250000000000001 0.05125 0  1.1 0.05125 0  1.375 0.05125 0  1.65 0.05125 0  1.925 0.05125 0  2.2 0.05125 0  0 0.1025 0  0.275 0.1025 0  0.55 0.1025 0  0.8250000000000001 0.1025 0  1.1 0.1025 0  1.375 0.1025 0  1.65 0.1025 0  1.925 0.1025 0  2.2 0.1025 0  0 0.15375 0  0.275 0.15375 0  0.55 0.15375 0  0.8250000000000001 0.15375 0  1.1 0.15375 0  1.375 0.15375 0  1.65 0.15375 0  1.925 0.15375 0  2.2 0.15375 0  0 0.205 0  0.275 0.205 0  0.55 0.205 0  0.8250000000000001 0.205 0  1.1 0.205 0  1.375 0.205 0  1.65 0.205 0  1.925 0.205 0  2.2 0.205 0  0 0.25625 0  0.275 0.25625 0  0.55 0.25625 0  0.8250000000000001 0.25625 0  1.1 0.25625 0  1.375 0.25625 0  1.65 0.25625 0  1.925 0.25625 0  2.2 0.25625 0  0 0.3075 0  0.275 0.3075 0  0.55 0.3075 0  0.8250000000000001 0.3075 0  1.1 0.3075 0  1.375 0.3075 0  1.65 0.3075 0  1.925 0.3075 0  2.2 0.3075 0  0 0.35875 0  0.275 0.35875 0  0.55 0.35875 0  0.8250000000000001 0.35875 0  1.1 0.35875 0  1.375 0.35875 0  1.65 0.35875 0  1.925 0.35875 0  2.2 0.35875 0  0 0.41 0  0.275 0.41 0  0.55 0.41 0  0.8250000000000001 0.41 0  1.1 0.41 0  1.375 0.41 0  1.65 0.41 0  1.925 0.41 0  2.2 0.41 0  </DataArray>
</Points>
<Cells>
<DataArray  type="UInt32"  Name="connectivity"  format="ascii">0 1 9  1 9 10  1 2 11  1 10 11  2 3 11  3 11 12  3 4 13  3 12 13  4 5 13  5 13 14  5 6 15  5 14 15  6 7 15  7 15 16  7 8 17  7 16 17  9 10 19  9 18 19  10 11 19  11 19 20  11 12 21  11 20 21  12 13 21  13 21 22  13 14 23  13 22 23  14 15 23  15 23 24  15 16 25  15 24 25  16 17 25  17 25 26  18 19 27  19 27 28  19 20 29  19 28 29  20 21 29  21 29 30  21 22 31  21 30 31  22 23 31  23 31 32  23 24 33  23 32 33  24 25 33  25 33 34  25 26 35  25 34 35  27 28 37  27 36 37  28 29 37  29 37 38  29 30 39  29 38 39  30 31 39  31 39 40  31 32 41  31 40 41  32 33 41  33 41 42  33 34 43  33 42 43  34 35 43  35 43 44  36 37 45  37 45 46  37 38 47  37 46 47  38 39 47  39 47 48  39 40 49  39 48 49  40 41 49  41 49 50  41 42 51  41 50 51  42 43 51  43 51 52  43 44 53  43 52 53  45 46 55  45 54 55  46 47 55  47 55 56  47 48 57  47 56 57  48 49 57  49 57 58  49 50 59  49 58 59  50 51 59  51 59 60  51 52 61  51 60 61  52 53 61  53 61 62  54 55 63  55 63 64  55 56 65  55 64 65  56 57 65  57 65 66  57 58 67  57 66 67  58 59 67  59 67 68  59 60 69  59 68 69  60 61 69  61 69 70  61 62 71  61 70 71  63 64 73  63 72 73  64 65 73  65 73 74  65 66 75  65 74 75  66 67 75  67 75 76  67 68 77  67 76 77  68 69 77  69 77 78  69 70 79  69 78 79  70 71 79  71 79 80  </DataArray>
<DataArray  type="UInt32"  Name="offsets"  format="ascii">3 6 9 12 15 18 21 24 27 30 33 36 39 42 45 48 51 54 57 60 63 66 69 72 75 78 81 84 87 90 93 96 99 102 105 108 111 114 117 120 123 126 129 132 135 138 141 144 147 150 153 156 159 162 165 168 171 174 177 180 183 186 189 192 195 198 201 204 207 210 213 216 219 222 225 228 231 234 237 240 243 246 249 252 255 258 261 264 267 270 273 276 279 282 285 288 291 294 297 300 303 306 309 312 315 318 321 324 327 330 333 336 339 342 345 348 351 354 357 360 363 366 369 372 375 378 381 384 </DataArray>
<DataArray  type="UInt8"  Name="types"  format="ascii">5 5 5 5 5 5 5 5 5 5 5 5 5 5 5 5 5 5 5 5 5 5 5 5 5 5 5 5 5 5 5 5 5 5 5 5 5 5 5 5 5 5 5 5 5 5 5 5 5 5 5 5 5 5 5 5 5 5 5 5 5 5 5 5 5 5 5 5 5 5 5 5 5 5 5 5 5 5 5 5 5 5 5 5 5 5 5 5 5 5 5 5 5 5 5 5 5 5 5 5 5 5 5 5 5 5 5 5 5 5 5 5 5 5 5 5 5 5 5 5 5 5 5 5 5 5 5 5 </DataArray>
</Cells>
<PointData  Vectors="f_16"> 
<DataArray  type="Float64"  Name="f_16"  NumberOfComponents="3" format="ascii">2.0558604985804450e-05 -1.2356369263039325e-08 0.0000000000000000e+00  -1.2167853891882658e-06 1.0123047585208669e-09 0.0000000000000000e+00  1.0609269167633386e-06 -2.2080351638729544e-09 0.0000000000000000e+00  -8.1785835758654561e-06 1.1661430291381369e-09 0.0000000000000000e+00  -2.8710964150451080e-06 1.1518265033083430e-08 0.0000000000000000e+00  -4.8234096238875340e-06 3.1888361540099918e-08 0.0000000000000000e+00  -5.7095148932495476e-06 2.6772920744776164e-08 0.0000000000000000e+00  -6.2877747702132286e-06 3.7920876758555293e-08 0.0000000000000000e+00  -2.1841230574928246e-06 3.7495899683763394e-08 0.0000000000000000e+00  6.5624705896730229e-01 -8.9123269768214371e-09 0.0000000000000000e+00  6.5728530683228359e-01 -1.6298869098791582e-04 0.0000000000000000e+00  6.5791199892303420e-01 1.1412340409583997e-04 0.0000000000000000e+00  6.5841273769934783e-01 -2.0089490305688550e-04 0.0000000000000000e+00  6.6072729243212969e-01 -3.8370051270883085e-04 0.0000000000000000e+00  6.7423423568739038e-01 -2.8451511404036694e-03 0.0000000000000000e+00  7.0760586900880074e-01 -7.1153866074730246e-03 0.0000000000000000e+00  7.5854528608047866e-01 -5.9951552444150050e-03 0.0000000000000000e+00  8.0217640964331405e-01 -1.7510887144836808e-03 0.0000000000000000e+00  1.1249842354950133e+00 3.0864756885394752e-09 0.0000000000000000e+00  1.1255982125191257e+00 -6.9973914369142411e-04 0.0000000000000000e+00  1.1250420135816581e+00 -3.0740770541045248e-04 0.0000000000000000e+00  1.1279331554231444e+00 -5.2916356653779561e-05 0.0000000000000000e+00  1.1252846495072366e+00 -1.1011607144740783e-03 0.0000000000000000e+00  1.1239179795841445e+00 -5.0126206438897139e-03 0.0000000000000000e+00  1.1223006894175831e+00 -1.1839160838110466e-02 0.0000000000000000e+00  1.1280926849347368e+00 -1.3523337932464918e-02 0.0000000000000000e+00  1.1583865721241617e+00 -1.2061230818792784e-02 0.0000000000000000e+00  1.4062396854684316e+00 2.8319964153500686e-09 0.0000000000000000e+00  1.4064880624096283e+00 -5.5630484917752884e-04 0.0000000000000000e+00  1.4093862863182933e+00 1.2746226682213327e-04 0.0000000000000000e+00  1.4038211988053695e+00 2.5702173306589837e-04 0.0000000000000000e+00  1.4054929872835591e+00 -8.5711779930736770e-04 0.0000000000000000e+00  1.4005783423549147e+00 -2.9824405037076427e-03 0.0000000000000000e+00  1.3758653251932778e+00 -7.9637900841311605e-03 0.0000000000000000e+00  1.3299816112111804e+00 -9.5633502616877027e-03 0.0000000000000000e+00  1.2864229059259802e+00 -1.2537830645011428e-02 0.0000000000000000e+00  1.4999819972173203e+00 -1.7546476097195546e-10 0.0000000000000000e+00  1.5014321731470253e+00 -1.5031693546801260e-04 0.0000000000000000e+00  1.5009511781737404e+00 -1.6671839291854771e-04 0.0000000000000000e+00  1.4985158866658743e+00 -8.5360939078676795e-05 0.0000000000000000e+00  1.4945542965800960e+00 3.3637538410729309e-06 0.0000000000000000e+00  1.4970866130675886e+00 1.7010058009246082e-04 0.0000000000000000e+00  1.4587935448667766e+00 2.0460568498582109e-04 0.0000000000000000e+00  1.4037492379243515e+00 1.3576652876516517e-04 0.0000000000000000e+00  1.3279434013020446e+00 3.0310499905947525e-05 0.0000000000000000e+00  1.4062363444815624e+00 -2.8632538785103634e-09 0.0000000000000000e+00  1.4063932693631851e+00 3.4973595426469661e-04 0.0000000000000000e+00  1.4084970274701618e+00 -4.9690958703300220e-04 0.0000000000000000e+00  1.4041700112037230e+00 -4.5477526992250051e-04 0.0000000000000000e+00  1.4049559731390291e+00 8.6381292996904919e-04 0.0000000000000000e+00  1.3984578834330379e+00 3.2146692219930692e-03 0.0000000000000000e+00  1.3772109271721154e+00 8.2565456684553819e-03 0.0000000000000000e+00  1.3295615936191312e+00 9.6330818063760700e-03 0.0000000000000000e+00  1.2853301102326327e+00 1.2393120042566074e-02 0.0000000000000000e+00  1.1249861280979636e+00 -2.7996425053522643e-09 0.0000000000000000e+00  1.1252928429181124e+00 2.6952559941160857e-04 0.0000000000000000e+00  1.1260848584373619e+00 9.6624202109359578e-05 0.0000000000000000e+00  1.1260752871290824e+00 -1.1033663533234078e-04 0.0000000000000000e+00  1.1241389727940583e+00 1.1677738127833736e-03 0.0000000000000000e+00  1.1241469370107384e+00 5.2696842724697327e-03 0.0000000000000000e+00  1.1204128942028515e+00 1.2065978906773932e-02 0.0000000000000000e+00  1.1285462570363289e+00 1.3770723445478373e-02 0.0000000000000000e+00  1.1570715064106145e+00 1.2304991719958984e-02 0.0000000000000000e+00  6.5624158502972030e-01 7.4667788860645881e-09 0.0000000000000000e+00  6.5601079282837782e-01 5.6239690446953485e-05 0.0000000000000000e+00  6.5608245383178510e-01 -1.8345723456744014e-04 0.0000000000000000e+00  6.5653555215797998e-01 1.5754297334418622e-04 0.0000000000000000e+00  6.5896314876338902e-01 3.6831126374739043e-04 0.0000000000000000e+00  6.7211238927374450e-01 2.9326613040085766e-03 0.0000000000000000e+00  7.0785382964057120e-01 7.2817337119577769e-03 0.0000000000000000e+00  7.5668296320481820e-01 6.0693976245099861e-03 0.0000000000000000e+00  8.0332474601481152e-01 2.1142903925063794e-03 0.0000000000000000e+00  -6.9706261980437740e-06 5.9243316433721637e-09 0.0000000000000000e+00  -7.2545000340139266e-06 -3.7405045282974073e-09 0.0000000000000000e+00  -4.6204559954882609e-06 1.3794994188960395e-09 0.0000000000000000e+00  -6.2289572723420260e-06 8.1940749520410619e-09 0.0000000000000000e+00  -2.2317811552883087e-06 3.1168371368554789e-08 0.0000000000000000e+00  -6.9256259616828287e-06 -1.1918971654135578e-08 0.0000000000000000e+00  -7.3251551828111272e-06 -1.7585087687395552e-08 0.0000000000000000e+00  7.6133494963472452e-07 2.2691557483311739e-08 0.0000000000000000e+00  -1.0478503323765084e-05 -1.2095170692900308e-07 0.0000000000000000e+00  </DataArray> 
</PointData> 
</Piece>
</UnstructuredGrid>
</VTKFile>