<?xml version="1.0"?>
<VTKFile type="UnstructuredGrid"  version="0.1"  >
<UnstructuredGrid>
<Piece  NumberOfPoints="81" NumberOfCells="128">
<Points>
<DataArray  type="Float64"  NumberOfComponents="3"  format="ascii">0 0 0  0.275 0 0  0.55 0 0  0.8250000000000001 0 0  1.1 0 0  1.375 0 0  1.65 0 0  1.925 0 0  2.2 0 0  0 0.05125 0  0.275 0.05125 0  0.55 0.05125 0  0.8250000000000001 0.05125 0  1.1 0.05125 0  1.375 0.05125 0  1.65 0.05125 0  1.925 0.05125 0  2.2 0.05125 0  0 0.1025 0  0.275 0.1025 0  0.55 0.1025 0  0.8250000000000001 0.1025 0  1.1 0.1025 0  1.375 0.1025 0  1.65 0.1025 0  1.925 0.1025 0  2.2 0.1025 0  0 0.15375 0  0.275 0.15375 0  0.55 0.15375 0  0.8250000000000001 0.15375 0  1.1 0.15375 0  1.375 0.15375 0  1.65 0.15375 0  1.925 0.15375 0  2.2 0.15375 0  0 0.205 0  0.275 0.205 0  0.55 0.205 0  0.8250000000000001 0.205 0  1.1 0.205 0  1.375 0.205 0  1.65 0.205 0  1.925 0.205 0  2.2 0.205 0  0 0.25625 0  0.275 0.25625 0  0.55 0.25625 0  0.8250000000000001 0.25625 0  1.1 0.25625 0  1.375 0.25625 0  1.65 0.25625 0  1.925 0.25625 0  2.2 0.25625 0  0 0.3075 0  0.275 0.3075 0  0.55 0.3075 0  0.8250000000000001 0.3075 0  1.1 0.3075 0  1.375 0.3075 0  1.65 0.3075 0  1.925 0.3075 0  2.2 0.3075 0  0 0.35875 0  0.275 0.35875 0  0.55 0.35875 0  0.8250000000000001 0.35875 0  1.1 0.35875 0  1.375 0.35875 0  1.65 0.35875 0  1.925 0.35875 0  2.2 0.35875 0  0 0.41 0  0.275 0.41 0  0.55 0.41 0  0.8250000000000001 0.41 0  1.1 0.41 0  1.375 0.41 0  1.65 0.41 0  1.925 0.41 0  2.2 0.41 0  </DataArray>
</Points>
<Cells>
<DataArray  type="UInt32"  Name="connectivity"  format="ascii">0 1 9  1 9 10  1 2 11  1 10 11  2 3 11  3 11 12  3 4 13  3 12 13  4 5 13  5 13 14  5 6 15  5 14 15  6 7 15  7 15 16  7 8 17  7 16 17  9 10 19  9 18 19  10 11 19  11 19 20  11 12 21  11 20 21  12 13 21  13 21 22  13 14 23  13 22 23  14 15 23  15 23 24  15 16 25  15 24 25  16 17 25  17 25 26  18 19 27  19 27 28  19 20 29  19 28 29  20 21 29  21 29 30  21 22 31  21 30 31  22 23 31  23 31 32  23 24 33  23 32 33  24 25 33  25 33 34  25 26 35  25 34 35  27 28 37  27 36 37  28 29 37  29 37 38  29 30 39  29 38 39  30 31 39  31 39 40  31 32 41  31 40 41  32 33 41  33 41 42  33 34 43  33 42 43  34 35 43  35 43 44  36 37 45  37 45 46  37 38 47  37 46 47  38 39 47  39 47 48  39 40 49  39 48 49  40 41 49  41 49 50  41 42 51  41 50 51  42 43 51  43 51 52  43 44 53  43 52 53  45 46 55  45 54 55  46 47 55  47 55 56  47 48 57  47 56 57  48 49 57  49 57 58  49 50 59  49 58 59  50 51 59  51 59 60  51 52 61  51 60 61  52 53 61  53 61 62  54 55 63  55 63 64  55 56 65  55 64 65  56 57 65  57 65 66  57 58 67  57 66 67  58 59 67  59 67 68  59 60 69  59 68 69  60 61 69  61 69 70  61 62 71  61 70 71  63 64 73  63 72 73  64 65 73  65 73 74  65 66 75  65 74 75  66 67 75  67 75 76  67 68 77  67 76 77  68 69 77  69 77 78  69 70 79  69 78 79  70 71 79  71 79 80  </DataArray>
<DataArray  type="UInt32"  Name="offsets"  format="ascii">3 6 9 12 15 18 21 24 27 30 33 36 39 42 45 48 51 54 57 60 63 66 69 72 75 78 81 84 87 90 93 96 99 102 105 108 111 114 117 120 123 126 129 132 135 138 141 144 147 150 153 156 159 162 165 168 171 174 177 180 183 186 189 192 195 198 201 204 207 210 213 216 219 222 225 228 231 234 237 240 243 246 249 252 255 258 261 264 267 270 273 276 279 282 285 288 291 294 297 300 303 306 309 312 315 318 321 324 327 330 333 336 339 342 345 348 351 354 357 360 363 366 369 372 375 378 381 384 </DataArray>
<DataArray  type="UInt8"  Name="types"  format="ascii">5 5 5 5 5 5 5 5 5 5 5 5 5 5 5 5 5 5 5 5 5 5 5 5 5 5 5 5 5 5 5 5 5 5 5 5 5 5 5 5 5 5 5 5 5 5 5 5 5 5 5 5 5 5 5 5 5 5 5 5 5 5 5 5 5 5 5 5 5 5 5 5 5 5 5 5 5 5 5 5 5 5 5 5 5 5 5 5 5 5 5 5 5 5 5 5 5 5 5 5 5 5 5 5 5 5 5 5 5 5 5 5 5 5 5 5 5 5 5 5 5 5 5 5 5 5 5 5 </DataArray>
</Cells>
<PointData  Vectors="f_16"> 
<DataArray  type="Float64"  Name="f_16"  NumberOfComponents="3" format="ascii">2.0535277353585708e-05 -3.8308026051211822e-10 0.0000000000000000e+00  -1.1945763469195713e-06 -6.1164231427124636e-09 0.0000000000000000e+00  1.1668902014914264e-06 -5.6913653489967260e-09 0.0000000000000000e+00  -8.1972544545550112e-06 1.2874727831004096e-08 0.0000000000000000e+00  -2.9592433877068112e-06 2.1290129778554936e-09 0.0000000000000000e+00  -4.8471912073344153e-06 2.6067409924726706e-08 0.0000000000000000e+00  -5.8772148497031545e-06 5.1249987399182598e-08 0.0000000000000000e+00  -6.6117446355730423e-06 4.2653386668026611e-08 0.0000000000000000e+00  -2.9073564973809674e-06 3.9403184148664365e-08 0.0000000000000000e+00  6.5624704974783177e-01 1.9252500157804014e-09 0.0000000000000000e+00  6.5758164369323069e-01 -1.5691153367556476e-04 0.0000000000000000e+00  6.5789019469217236e-01 3.7772283270194525e-04 0.0000000000000000e+00  6.5855800148230659e-01 -8.4500112078865171e-05 0.0000000000000000e+00  6.6243076883965823e-01 -1.0109222709931698e-03 0.0000000000000000e+00  6.8765948314834235e-01 -4.7575458036667930e-03 0.0000000000000000e+00  7.3760481717753901e-01 -7.7926756541495217e-03 0.0000000000000000e+00  7.9348970950155584e-01 -6.6426457798827903e-03 0.0000000000000000e+00  8.2034950551246788e-01 1.3330467022982548e-03 0.0000000000000000e+00  1.1249841783994619e+00 -1.1981263638725577e-08 0.0000000000000000e+00  1.1247406242780449e+00 -3.1283112865670504e-04 0.0000000000000000e+00  1.1230484442435760e+00 1.0143474349425869e-04 0.0000000000000000e+00  1.1268571900035969e+00 -9.4264291083080557e-04 0.0000000000000000e+00  1.1279878770510674e+00 -1.5489134997074391e-03 0.0000000000000000e+00  1.1255203307335846e+00 -8.1231518984950391e-03 0.0000000000000000e+00  1.1217344620432681e+00 -1.5248628994070855e-02 0.0000000000000000e+00  1.1373942211283889e+00 -1.6987077069120230e-02 0.0000000000000000e+00  1.1765168687161085e+00 -4.4087562016785521e-03 0.0000000000000000e+00  1.4062396930088776e+00 -1.0929347776087328e-08 0.0000000000000000e+00  1.4043820149043393e+00 3.1537660119061614e-04 0.0000000000000000e+00  1.4059482839546706e+00 -4.0271277695426292e-04 0.0000000000000000e+00  1.4076145172023145e+00 -9.0484541579491590e-04 0.0000000000000000e+00  1.4078232535474540e+00 9.4493173833609879e-05 0.0000000000000000e+00  1.3891224508891715e+00 -5.0111925643926284e-03 0.0000000000000000e+00  1.3519184379324398e+00 -1.1607554668238271e-02 0.0000000000000000e+00  1.3060574322700340e+00 -1.2000670290057198e-02 0.0000000000000000e+00  1.2650281403521835e+00 -8.1579097385007966e-03 0.0000000000000000e+00  1.4999818955460007e+00 -1.1347129687701794e-09 0.0000000000000000e+00  1.4981529913589857e+00 -1.4734973323376005e-04 0.0000000000000000e+00  1.4987741358061333e+00 -1.5622028853729344e-04 0.0000000000000000e+00  1.5037015556790081e+00 -8.3618423989102641e-05 0.0000000000000000e+00  1.4957203878174807e+00 2.4944045398894615e-05 0.0000000000000000e+00  1.4787362668542328e+00 1.8193621425623301e-04 0.0000000000000000e+00  1.4302129847920824e+00 1.2381260645942261e-04 0.0000000000000000e+00  1.3712842461744128e+00 1.3493302453483253e-04 0.0000000000000000e+00  1.2858641808431013e+00 9.1564264185979821e-05 0.0000000000000000e+00  1.4062363537612388e+00 1.1396487111188107e-08 0.0000000000000000e+00  1.4043089692254405e+00 -5.1596896704181458e-04 0.0000000000000000e+00  1.4050639163810783e+00 4.4811421134561043e-05 0.0000000000000000e+00  1.4079090288314486e+00 7.2242827902259659e-04 0.0000000000000000e+00  1.4073635873284389e+00 -1.4983132236158413e-05 0.0000000000000000e+00  1.3871252144425326e+00 5.2458225630472579e-03 0.0000000000000000e+00  1.3531474700743968e+00 1.1709799222987377e-02 0.0000000000000000e+00  1.3054774688188915e+00 1.2066622328166205e-02 0.0000000000000000e+00  1.2639276018832186e+00 8.1469609511093510e-03 0.0000000000000000e+00  1.1249860539091241e+00 1.4432107322561858e-08 0.0000000000000000e+00  1.1244570430844880e+00 -1.1238687884960490e-04 0.0000000000000000e+00  1.1241167708169495e+00 -3.0224609895926352e-04 0.0000000000000000e+00  1.1249916818828063e+00 7.8478193167122565e-04 0.0000000000000000e+00  1.1268852228442772e+00 1.6347811447148797e-03 0.0000000000000000e+00  1.1259237942442926e+00 8.3973334534615252e-03 0.0000000000000000e+00  1.1198013529785633e+00 1.5392822135469825e-02 0.0000000000000000e+00  1.1376179988204154e+00 1.7209022959959769e-02 0.0000000000000000e+00  1.1752887769176523e+00 4.7295257552238557e-03 0.0000000000000000e+00  6.5624159814240746e-01 -2.4288422043362209e-09 0.0000000000000000e+00  6.5629589864034910e-01 5.0701435001573317e-05 0.0000000000000000e+00  6.5607912374470734e-01 -4.4027885795219399e-04 0.0000000000000000e+00  6.5673711352158270e-01 4.5228215433331664e-05 0.0000000000000000e+00  6.6076041283607068e-01 9.9761514613482048e-04 0.0000000000000000e+00  6.8565679327096740e-01 4.8399642343937010e-03 0.0000000000000000e+00  7.3783057071000968e-01 7.9333191254187599e-03 0.0000000000000000e+00  7.9145841046057186e-01 6.7062920357005588e-03 0.0000000000000000e+00  8.2155676796272648e-01 -9.4422313066870752e-04 0.0000000000000000e+00  -7.0035744361067975e-06 -9.6867856318804677e-09 0.0000000000000000e+00  -7.2369031186228612e-06 1.0825222616434247e-09 0.0000000000000000e+00  -4.5327273314563161e-06 1.2474789117449357e-09 0.0000000000000000e+00  -6.2313194594336067e-06 -2.5558219740427621e-10 0.0000000000000000e+00  -2.2915446050933311e-06 4.8754965866272057e-08 0.0000000000000000e+00  -6.8976141742927462e-06 3.5931632866448880e-09 0.0000000000000000e+00  -7.5058271377449323e-06 -4.3713294772029897e-08 0.0000000000000000e+00  6.7712548582652179e-07 -3.6476341894713617e-09 0.0000000000000000e+00  -1.0993601868917347e-05 -1.1844906948756658e-07 0.0000000000000000e+00  </DataArray> 
</PointData> 
</Piece>
</UnstructuredGrid>
</VTKFile>