<?xml version="1.0"?>
<VTKFile type="UnstructuredGrid"  version="0.1"  >
<UnstructuredGrid>
<Piece  NumberOfPoints="81" NumberOfCells="128">
<Points>
<DataArray  type="Float64"  NumberOfComponents="3"  format="ascii">0 0 0  0.275 0 0  0.55 0 0  0.8250000000000001 0 0  1.1 0 0  1.375 0 0  1.65 0 0  1.925 0 0  2.2 0 0  0 0.05125 0  0.275 0.05125 0  0.55 0.05125 0  0.8250000000000001 0.05125 0  1.1 0.05125 0  1.375 0.05125 0  1.65 0.05125 0  1.925 0.05125 0  2.2 0.05125 0  0 0.1025 0  0.275 0.1025 0  0.55 0.1025 0  0.8250000000000001 0.1025 0  1.1 0.1025 0  1.375 0.1025 0  1.65 0.1025 0  1.925 0.1025 0  2.2 0.1025 0  0 0.15375 0  0.275 0.15375 0  0.55 0.15375 0  0.8250000000000001 0.15375 0  1.1 0.15375 0  1.375 0.15375 0  1.65 0.15375 0  1.925 0.15375 0  2.2 0.15375 0  0 0.205 0  0.275 0.205 0  0.55 0.205 0  0.8250000000000001 0.205 0  1.1 0.205 0  1.375 0.205 0  1.65 0.205 0  1.925 0.205 0  2.2 0.205 0  0 0.25625 0  0.275 0.25625 0  0.55 0.25625 0  0.8250000000000001 0.25625 0  1.1 0.25625 0  1.375 0.25625 0  1.65 0.25625 0  1.925 0.25625 0  2.2 0.25625 0  0 0.3075 0  0.275 0.3075 0  0.55 0.3075 0  0.8250000000000001 0.3075 0  1.1 0.3075 0  1.375 0.3075 0  1.65 0.3075 0  1.925 0.3075 0  2.2 0.3075 0  0 0.35875 0  0.275 0.35875 0  0.55 0.35875 0  0.8250000000000001 0.35875 0  1.1 0.35875 0  1.375 0.35875 0  1.65 0.35875 0  1.925 0.35875 0  2.2 0.35875 0  0 0.41 0  0.275 0.41 0  0.55 0.41 0  0.8250000000000001 0.41 0  1.1 0.41 0  1.375 0.41 0  1.65 0.41 0  1.925 0.41 0  2.2 0.41 0  </DataArray>
</Points>
<Cells>
<DataArray  type="UInt32"  Name="connectivity"  format="ascii">0 1 9  1 9 10  1 2 11  1 10 11  2 3 11  3 11 12  3 4 13  3 12 13  4 5 13  5 13 14  5 6 15  5 14 15  6 7 15  7 15 16  7 8 17  7 16 17  9 10 19  9 18 19  10 11 19  11 19 20  11 12 21  11 20 21  12 13 21  13 21 22  13 14 23  13 22 23  14 15 23  15 23 24  15 16 25  15 24 25  16 17 25  17 25 26  18 19 27  19 27 28  19 20 29  19 28 29  20 21 29  21 29 30  21 22 31  21 30 31  22 23 31  23 31 32  23 24 33  23 32 33  24 25 33  25 33 34  25 26 35  25 34 35  27 28 37  27 36 37  28 29 37  29 37 38  29 30 39  29 38 39  30 31 39  31 39 40  31 32 41  31 40 41  32 33 41  33 41 42  33 34 43  33 42 43  34 35 43  35 43 44  36 37 45  37 45 46  37 38 47  37 46 47  38 39 47  39 47 48  39 40 49  39 48 49  40 41 49  41 49 50  41 42 51  41 50 51  42 43 51  43 51 52  43 44 53  43 52 53  45 46 55  45 54 55  46 47 55  47 55 56  47 48 57  47 56 57  48 49 57  49 57 58  49 50 59  49 58 59  50 51 59  51 59 60  51 52 61  51 60 61  52 53 61  53 61 62  54 55 63  55 63 64  55 56 65  55 64 65  56 57 65  57 65 66  57 58 67  57 66 67  58 59 67  59 67 68  59 60 69  59 68 69  60 61 69  61 69 70  61 62 71  61 70 71  63 64 73  63 72 73  64 65 73  65 73 74  65 66 75  65 74 75  66 67 75  67 75 76  67 68 77  67 76 77  68 69 77  69 77 78  69 70 79  69 78 79  70 71 79  71 79 80  </DataArray>
<DataArray  type="UInt32"  Name="offsets"  format="ascii">3 6 9 12 15 18 21 24 27 30 33 36 39 42 45 48 51 54 57 60 63 66 69 72 75 78 81 84 87 90 93 96 99 102 105 108 111 114 117 120 123 126 129 132 135 138 141 144 147 150 153 156 159 162 165 168 171 174 177 180 183 186 189 192 195 198 201 204 207 210 213 216 219 222 225 228 231 234 237 240 243 246 249 252 255 258 261 264 267 270 273 276 279 282 285 288 291 294 297 300 303 306 309 312 315 318 321 324 327 330 333 336 339 342 345 348 351 354 357 360 363 366 369 372 375 378 381 384 </DataArray>
<DataArray  type="UInt8"  Name="types"  format="ascii">5 5 5 5 5 5 5 5 5 5 5 5 5 5 5 5 5 5 5 5 5 5 5 5 5 5 5 5 5 5 5 5 5 5 5 5 5 5 5 5 5 5 5 5 5 5 5 5 5 5 5 5 5 5 5 5 5 5 5 5 5 5 5 5 5 5 5 5 5 5 5 5 5 5 5 5 5 5 5 5 5 5 5 5 5 5 5 5 5 5 5 5 5 5 5 5 5 5 5 5 5 5 5 5 5 5 5 5 5 5 5 5 5 5 5 5 5 5 5 5 5 5 5 5 5 5 5 5 </DataArray>
</Cells>
<PointData  Vectors="f_16"> 
<DataArray  type="Float64"  Name="f_16"  NumberOfComponents="3" format="ascii">2.1087050474384119e-05 -4.9650129324425837e-08 0.0000000000000000e+00  -1.0196783951295571e-06 -4.5315264488013808e-08 0.0000000000000000e+00  1.8159731163524184e-06 -7.6724323170458181e-08 0.0000000000000000e+00  -8.5547228729010012e-06 9.8581412338583620e-08 0.0000000000000000e+00  -4.0530720158635239e-06 -4.4100357555743388e-09 0.0000000000000000e+00  -5.6194792720996639e-06 1.0802892160142058e-07 0.0000000000000000e+00  -7.3516885375787620e-06 2.8260318627701606e-08 0.0000000000000000e+00  -6.8282154051586399e-06 -9.5027518878544619e-08 0.0000000000000000e+00  -3.8505943132468466e-06 3.7409983645388469e-08 0.0000000000000000e+00  6.5624708989291092e-01 3.1620332360292758e-08 0.0000000000000000e+00  6.6319281086049886e-01 -1.6049343837816594e-03 0.0000000000000000e+00  6.6817524920482096e-01 -1.2998444651280666e-03 0.0000000000000000e+00  7.0683662393492686e-01 -8.5479135363688563e-03 0.0000000000000000e+00  8.1878676618564428e-01 -1.7495068894327545e-02 0.0000000000000000e+00  9.1118327840758140e-01 -4.4836381041653273e-03 0.0000000000000000e+00  9.0378513081653844e-01 4.0377984234827207e-03 0.0000000000000000e+00  9.1275388813826641e-01 -5.8078497952665188e-03 0.0000000000000000e+00  8.9190718294581961e-01 9.1259803109759608e-03 0.0000000000000000e+00  1.1249841644934084e+00 -8.7625459137571067e-10 0.0000000000000000e+00  1.1273783667492969e+00 -7.9151080072418015e-04 0.0000000000000000e+00  1.1195550033883810e+00 -3.9374609693462167e-04 0.0000000000000000e+00  1.1151269427415151e+00 -1.9738315884300656e-02 0.0000000000000000e+00  1.1097539241258940e+00 -3.0741326391427081e-02 0.0000000000000000e+00  1.1621872092757948e+00 -1.1777685588467127e-02 0.0000000000000000e+00  1.1862258062632973e+00 4.4909561652435861e-03 0.0000000000000000e+00  1.1720408639071325e+00 -1.1462085689805964e-02 0.0000000000000000e+00  1.1837941051658614e+00 9.0444048254697731e-03 0.0000000000000000e+00  1.4062396826453414e+00 -2.7484913337181889e-08 0.0000000000000000e+00  1.4045161679138156e+00 1.5229299521225999e-03 0.0000000000000000e+00  1.3966897629222137e+00 -3.4770834797571499e-04 0.0000000000000000e+00  1.3751179404547886e+00 -1.4424116050891644e-02 0.0000000000000000e+00  1.3170720874626769e+00 -1.9851265860968074e-02 0.0000000000000000e+00  1.2153197336036274e+00 -1.6127957801390241e-02 0.0000000000000000e+00  1.2097006685288298e+00 2.9061099602084614e-03 0.0000000000000000e+00  1.2022844690321723e+00 -3.2191160763870115e-03 0.0000000000000000e+00  1.2176803917059118e+00 6.5796565636274378e-03 0.0000000000000000e+00  1.4999817263324156e+00 -3.4512530083854424e-08 0.0000000000000000e+00  1.5023110536910405e+00 -1.4833293796579966e-04 0.0000000000000000e+00  1.4861075442926690e+00 -7.8573053446613219e-05 0.0000000000000000e+00  1.4667591611217514e+00 1.5566283909913333e-05 0.0000000000000000e+00  1.3863409417433623e+00 -4.9632595665645330e-05 0.0000000000000000e+00  1.2336717695548645e+00 4.6517595033668614e-05 0.0000000000000000e+00  1.2100287937364538e+00 1.3266488835341077e-04 0.0000000000000000e+00  1.2016803935909752e+00 2.4673707046288186e-04 0.0000000000000000e+00  1.2184790064530389e+00 4.2958151748245078e-05 0.0000000000000000e+00  1.4062364751756065e+00 -1.0716067481963988e-08 0.0000000000000000e+00  1.4044849829247927e+00 -1.6812394248889814e-03 0.0000000000000000e+00  1.3959551199204312e+00 1.6337546057349341e-04 0.0000000000000000e+00  1.3756227745244902e+00 1.4350788409379953e-02 0.0000000000000000e+00  1.3166173793191331e+00 1.9820659200227617e-02 0.0000000000000000e+00  1.2129828812772274e+00 1.6141749729897525e-02 0.0000000000000000e+00  1.2110949053654996e+00 -2.8161127564162074e-03 0.0000000000000000e+00  1.2017071249045697e+00 3.4636000050259214e-03 0.0000000000000000e+00  1.2169535609663626e+00 -6.7677568546294564e-03 0.0000000000000000e+00  1.1249858857187540e+00 -1.4644490479872588e-08 0.0000000000000000e+00  1.1271012044810678e+00 3.6011712209453736e-04 0.0000000000000000e+00  1.1208197708256191e+00 2.9641235142145034e-04 0.0000000000000000e+00  1.1138348003214267e+00 1.9703173364128142e-02 0.0000000000000000e+00  1.1092769160770797e+00 3.0815244744531588e-02 0.0000000000000000e+00  1.1625227735122963e+00 1.1782476607406731e-02 0.0000000000000000e+00  1.1842489619346999e+00 -4.4000634297376761e-03 0.0000000000000000e+00  1.1724534434296092e+00 1.1852362285859204e-02 0.0000000000000000e+00  1.1831468393591993e+00 -8.8637588843650632e-03 0.0000000000000000e+00  6.5624169203651939e-01 -3.9894791249859649e-08 0.0000000000000000e+00  6.6185361104588625e-01 1.4860310457719867e-03 0.0000000000000000e+00  6.6665156091526867e-01 1.3054356961425678e-03 0.0000000000000000e+00  7.0565567395076634e-01 8.5327278395024853e-03 0.0000000000000000e+00  8.1793337653580001e-01 1.7451889900146851e-02 0.0000000000000000e+00  9.0968073109772118e-01 4.4970986108086516e-03 0.0000000000000000e+00  9.0368961659581715e-01 -3.9362926675528178e-03 0.0000000000000000e+00  9.1060756989964176e-01 5.8837908831229635e-03 0.0000000000000000e+00  8.9293531238982016e-01 -8.8958603302269831e-03 0.0000000000000000e+00  -6.8387238753238145e-06 1.4894960192054737e-09 0.0000000000000000e+00  -7.0618541294028294e-06 2.7499539161776116e-08 0.0000000000000000e+00  -4.0260350668859982e-06 7.4463848354684183e-08 0.0000000000000000e+00  -5.8154357350441228e-06 -3.8834483340088944e-08 0.0000000000000000e+00  -3.0327553778961437e-06 -6.5218695999855308e-08 0.0000000000000000e+00  -7.4972319103558257e-06 -1.8141851702196842e-07 0.0000000000000000e+00  -8.3770784909675839e-06 -1.3942502377671791e-07 0.0000000000000000e+00  1.4312978335634209e-06 8.8292586743003950e-08 0.0000000000000000e+00  -1.1315701763091921e-05 -1.1744132840475061e-08 0.0000000000000000e+00  </DataArray> 
</PointData> 
</Piece>
</UnstructuredGrid>
</VTKFile>