<?xml version="1.0"?>
<VTKFile type="UnstructuredGrid"  version="0.1"  >
<UnstructuredGrid>
<Piece  NumberOfPoints="81" NumberOfCells="128">
<Points>
<DataArray  type="Float64"  NumberOfComponents="3"  format="ascii">0 0 0  0.275 0 0  0.55 0 0  0.8250000000000001 0 0  1.1 0 0  1.375 0 0  1.65 0 0  1.925 0 0  2.2 0 0  0 0.05125 0  0.275 0.05125 0  0.55 0.05125 0  0.8250000000000001 0.05125 0  1.1 0.05125 0  1.375 0.05125 0  1.65 0.05125 0  1.925 0.05125 0  2.2 0.05125 0  0 0.1025 0  0.275 0.1025 0  0.55 0.1025 0  0.8250000000000001 0.1025 0  1.1 0.1025 0  1.375 0.1025 0  1.65 0.1025 0  1.925 0.1025 0  2.2 0.1025 0  0 0.15375 0  0.275 0.15375 0  0.55 0.15375 0  0.8250000000000001 0.15375 0  1.1 0.15375 0  1.375 0.15375 0  1.65 0.15375 0  1.925 0.15375 0  2.2 0.15375 0  0 0.205 0  0.275 0.205 0  0.55 0.205 0  0.8250000000000001 0.205 0  1.1 0.205 0  1.375 0.205 0  1.65 0.205 0  1.925 0.205 0  2.2 0.205 0  0 0.25625 0  0.275 0.25625 0  0.55 0.25625 0  0.8250000000000001 0.25625 0  1.1 0.25625 0  1.375 0.25625 0  1.65 0.25625 0  1.925 0.25625 0  2.2 0.25625 0  0 0.3075 0  0.275 0.3075 0  0.55 0.3075 0  0.8250000000000001 0.3075 0  1.1 0.3075 0  1.375 0.3075 0  1.65 0.3075 0  1.925 0.3075 0  2.2 0.3075 0  0 0.35875 0  0.275 0.35875 0  0.55 0.35875 0  0.8250000000000001 0.35875 0  1.1 0.35875 0  1.375 0.35875 0  1.65 0.35875 0  1.925 0.35875 0  2.2 0.35875 0  0 0.41 0  0.275 0.41 0  0.55 0.41 0  0.8250000000000001 0.41 0  1.1 0.41 0  1.375 0.41 0  1.65 0.41 0  1.925 0.41 0  2.2 0.41 0  </DataArray>
</Points>
<Cells>
<DataArray  type="UInt32"  Name="connectivity"  format="ascii">0 1 9  1 9 10  1 2 11  1 10 11  2 3 11  3 11 12  3 4 13  3 12 13  4 5 13  5 13 14  5 6 15  5 14 15  6 7 15  7 15 16  7 8 17  7 16 17  9 10 19  9 18 19  10 11 19  11 19 20  11 12 21  11 20 21  12 13 21  13 21 22  13 14 23  13 22 23  14 15 23  15 23 24  15 16 25  15 24 25  16 17 25  17 25 26  18 19 27  19 27 28  19 20 29  19 28 29  20 21 29  21 29 30  21 22 31  21 30 31  22 23 31  23 31 32  23 24 33  23 32 33  24 25 33  25 33 34  25 26 35  25 34 35  27 28 37  27 36 37  28 29 37  29 37 38  29 30 39  29 38 39  30 31 39  31 39 40  31 32 41  31 40 41  32 33 41  33 41 42  33 34 43  33 42 43  34 35 43  35 43 44  36 37 45  37 45 46  37 38 47  37 46 47  38 39 47  39 47 48  39 40 49  39 48 49  40 41 49  41 49 50  41 42 51  41 50 51  42 43 51  43 51 52  43 44 53  43 52 53  45 46 55  45 54 55  46 47 55  47 55 56  47 48 57  47 56 57  48 49 57  49 57 58  49 50 59  49 58 59  50 51 59  51 59 60  51 52 61  51 60 61  52 53 61  53 61 62  54 55 63  55 63 64  55 56 65  55 64 65  56 57 65  57 65 66  57 58 67  57 66 67  58 59 67  59 67 68  59 60 69  59 68 69  60 61 69  61 69 70  61 62 71  61 70 71  63 64 73  63 72 73  64 65 73  65 73 74  65 66 75  65 74 75  66 67 75  67 75 76  67 68 77  67 76 77  68 69 77  69 77 78  69 70 79  69 78 79  70 71 79  71 79 80  </DataArray>
<DataArray  type="UInt32"  Name="offsets"  format="ascii">3 6 9 12 15 18 21 24 27 30 33 36 39 42 45 48 51 54 57 60 63 66 69 72 75 78 81 84 87 90 93 96 99 102 105 108 111 114 117 120 123 126 129 132 135 138 141 144 147 150 153 156 159 162 165 168 171 174 177 180 183 186 189 192 195 198 201 204 207 210 213 216 219 222 225 228 231 234 237 240 243 246 249 252 255 258 261 264 267 270 273 276 279 282 285 288 291 294 297 300 303 306 309 312 315 318 321 324 327 330 333 336 339 342 345 348 351 354 357 360 363 366 369 372 375 378 381 384 </DataArray>
<DataArray  type="UInt8"  Name="types"  format="ascii">5 5 5 5 5 5 5 5 5 5 5 5 5 5 5 5 5 5 5 5 5 5 5 5 5 5 5 5 5 5 5 5 5 5 5 5 5 5 5 5 5 5 5 5 5 5 5 5 5 5 5 5 5 5 5 5 5 5 5 5 5 5 5 5 5 5 5 5 5 5 5 5 5 5 5 5 5 5 5 5 5 5 5 5 5 5 5 5 5 5 5 5 5 5 5 5 5 5 5 5 5 5 5 5 5 5 5 5 5 5 5 5 5 5 5 5 5 5 5 5 5 5 5 5 5 5 5 5 </DataArray>
</Cells>
<PointData  Vectors="f_16"> 
<DataArray  type="Float64"  Name="f_16"  NumberOfComponents="3" format="ascii">2.2810210467932077e-05 4.9082514546288209e-08 0.0000000000000000e+00  -1.7502477815882329e-07 1.6250374979902063e-07 0.0000000000000000e+00  2.2287868063721420e-07 1.1906387107669736e-07 0.0000000000000000e+00  -8.9818853328767876e-06 5.7531150084645603e-07 0.0000000000000000e+00  -4.9917879465937984e-06 3.2906001764273502e-07 0.0000000000000000e+00  -5.5847194687427691e-06 7.6726806719397371e-08 0.0000000000000000e+00  -9.3398653966129668e-06 2.0840580101355368e-07 0.0000000000000000e+00  -7.1830549419935855e-06 -1.3529354113091881e-07 0.0000000000000000e+00  -5.0453424344653618e-06 2.7127607107696140e-08 0.0000000000000000e+00  6.5624810843517445e-01 1.2868680622889933e-07 0.0000000000000000e+00  6.8202740517730676e-01 -5.0211813124719507e-03 0.0000000000000000e+00  8.6543947521641995e-01 -4.3450969841869760e-02 0.0000000000000000e+00  1.0553808164131329e+00 2.1422594199044325e-03 0.0000000000000000e+00  1.0467635343810031e+00 4.1640885183787555e-03 0.0000000000000000e+00  1.0010496463292602e+00 -9.0416034570874743e-03 0.0000000000000000e+00  1.0575976569229881e+00 7.2019384819433860e-03 0.0000000000000000e+00  1.0078100487782091e+00 -6.2258616967995435e-03 0.0000000000000000e+00  1.0439227956606500e+00 7.0710614825168893e-03 0.0000000000000000e+00  1.1249843053672131e+00 1.3729184904334113e-07 0.0000000000000000e+00  1.1105402250659908e+00 -1.8592050505579175e-02 0.0000000000000000e+00  1.0449991086445340e+00 -9.0071249742810416e-02 0.0000000000000000e+00  1.1520954207091831e+00 1.4893949090017481e-02 0.0000000000000000e+00  1.1316130994417004e+00 9.3925505013089786e-04 0.0000000000000000e+00  1.0988547930965813e+00 -3.1351324336326551e-03 0.0000000000000000e+00  1.1481759983933386e+00 4.1406757108687423e-03 0.0000000000000000e+00  1.1143773974401825e+00 -5.7499459692382992e-03 0.0000000000000000e+00  1.1453098796768575e+00 3.4335128846907409e-03 0.0000000000000000e+00  1.4062404465388432e+00 2.9321753414660910e-07 0.0000000000000000e+00  1.3746215265535071e+00 -6.0743569387298260e-03 0.0000000000000000e+00  1.2133254849812967e+00 -6.0698251562021473e-02 0.0000000000000000e+00  1.1478202643285540e+00 4.6383919488979424e-03 0.0000000000000000e+00  1.1474028986367506e+00 -6.1318873936854418e-03 0.0000000000000000e+00  1.1055885616487611e+00 -2.1544593040760504e-03 0.0000000000000000e+00  1.1612440942016058e+00 9.6315751755232909e-04 0.0000000000000000e+00  1.1187294257566436e+00 -1.4690910940643996e-03 0.0000000000000000e+00  1.1524397679483374e+00 1.6121426241455165e-03 0.0000000000000000e+00  1.4999819885104422e+00 -8.3590264682521521e-08 0.0000000000000000e+00  1.4735280234522716e+00 -1.4212991920789535e-04 0.0000000000000000e+00  1.2871815852896484e+00 -1.0944567701023172e-04 0.0000000000000000e+00  1.1466464173034059e+00 2.4610119021398785e-05 0.0000000000000000e+00  1.1514922419606604e+00 -4.6865087245136435e-05 0.0000000000000000e+00  1.0987567737453099e+00 1.4946983547111886e-04 0.0000000000000000e+00  1.1647508146604040e+00 1.2710767372547127e-04 0.0000000000000000e+00  1.1154667162082292e+00 7.5118769400999206e-05 0.0000000000000000e+00  1.1525010354503662e+00 -9.5692943201610570e-05 0.0000000000000000e+00  1.4062377327044260e+00 -2.9842927915709246e-07 0.0000000000000000e+00  1.3743393417457639e+00 6.0123617718759719e-03 0.0000000000000000e+00  1.2117837238048761e+00 6.0625669291301483e-02 0.0000000000000000e+00  1.1486311238648415e+00 -4.6992163743461990e-03 0.0000000000000000e+00  1.1474465066448765e+00 6.1974039623692240e-03 0.0000000000000000e+00  1.1036877640640292e+00 2.3724827791865252e-03 0.0000000000000000e+00  1.1632303881421884e+00 -8.8438237802113747e-04 0.0000000000000000e+00  1.1192497197986897e+00 1.5619138565097954e-03 0.0000000000000000e+00  1.1517512359796602e+00 -1.8684007374260461e-03 0.0000000000000000e+00  1.1249859431853113e+00 -1.1225819674008434e-07 0.0000000000000000e+00  1.1101098012178909e+00 1.8282187169229264e-02 0.0000000000000000e+00  1.0464973069125056e+00 9.0076489802189699e-02 0.0000000000000000e+00  1.1511978097255218e+00 -1.4998469284867054e-02 0.0000000000000000e+00  1.1310593057956302e+00 -8.6214463727158697e-04 0.0000000000000000e+00  1.1001138985790420e+00 3.2218743512193674e-03 0.0000000000000000e+00  1.1468316349619569e+00 -4.1306023537018531e-03 0.0000000000000000e+00  1.1156855372612910e+00 5.8725381047859083e-03 0.0000000000000000e+00  1.1449134039524231e+00 -3.2621831905207455e-03 0.0000000000000000e+00  6.5624256602877196e-01 -1.8359973550026112e-07 0.0000000000000000e+00  6.8131888551835185e-01 4.9882608080970888e-03 0.0000000000000000e+00  8.6410769991158454e-01 4.3396222477219512e-02 0.0000000000000000e+00  1.0546544639712880e+00 -2.1289805188939416e-03 0.0000000000000000e+00  1.0465594958985449e+00 -4.1732652877284580e-03 0.0000000000000000e+00  1.0002689873358235e+00 9.0574025418252643e-03 0.0000000000000000e+00  1.0579962720784322e+00 -7.1001784279884506e-03 0.0000000000000000e+00  1.0055941598153799e+00 6.2211195088832643e-03 0.0000000000000000e+00  1.0446378402524745e+00 -6.7454158442573952e-03 0.0000000000000000e+00  -6.7936515183953327e-06 -3.5189770313915449e-07 0.0000000000000000e+00  -6.2025554491475906e-06 -2.1125734466441206e-07 0.0000000000000000e+00  -5.3867915845622467e-06 -3.4466159512904164e-07 0.0000000000000000e+00  -7.1327201667917505e-06 -6.7448066734560673e-07 0.0000000000000000e+00  -4.3118976799386556e-06 -5.0377682733172516e-07 0.0000000000000000e+00  -8.2180194490460113e-06 -5.3998042667740271e-08 0.0000000000000000e+00  -1.1152843306662414e-05 -1.5337600540589115e-07 0.0000000000000000e+00  1.3521586497106985e-06 1.1579054889831837e-07 0.0000000000000000e+00  -1.0703198166333648e-05 -3.8069636992989278e-09 0.0000000000000000e+00  </DataArray> 
</PointData> 
</Piece>
</UnstructuredGrid>
</VTKFile>