<?xml version="1.0"?>
<VTKFile type="UnstructuredGrid"  version="0.1"  >
<UnstructuredGrid>
<Piece  NumberOfPoints="81" NumberOfCells="128">
<Points>
<DataArray  type="Float64"  NumberOfComponents="3"  format="ascii">0 0 0  0.275 0 0  0.55 0 0  0.8250000000000001 0 0  1.1 0 0  1.375 0 0  1.65 0 0  1.925 0 0  2.2 0 0  0 0.05125 0  0.275 0.05125 0  0.55 0.05125 0  0.8250000000000001 0.05125 0  1.1 0.05125 0  1.375 0.05125 0  1.65 0.05125 0  1.925 0.05125 0  2.2 0.05125 0  0 0.1025 0  0.275 0.1025 0  0.55 0.1025 0  0.8250000000000001 0.1025 0  1.1 0.1025 0  1.375 0.1025 0  1.65 0.1025 0  1.925 0.1025 0  2.2 0.1025 0  0 0.15375 0  0.275 0.15375 0  0.55 0.15375 0  0.8250000000000001 0.15375 0  1.1 0.15375 0  1.375 0.15375 0  1.65 0.15375 0  1.925 0.15375 0  2.2 0.15375 0  0 0.205 0  0.275 0.205 0  0.55 0.205 0  0.8250000000000001 0.205 0  1.1 0.205 0  1.375 0.205 0  1.65 0.205 0  1.925 0.205 0  2.2 0.205 0  0 0.25625 0  0.275 0.25625 0  0.55 0.25625 0  0.8250000000000001 0.25625 0  1.1 0.25625 0  1.375 0.25625 0  1.65 0.25625 0  1.925 0.25625 0  2.2 0.25625 0  0 0.3075 0  0.275 0.3075 0  0.55 0.3075 0  0.8250000000000001 0.3075 0  1.1 0.3075 0  1.375 0.3075 0  1.65 0.3075 0  1.925 0.3075 0  2.2 0.3075 0  0 0.35875 0  0.275 0.35875 0  0.55 0.35875 0  0.8250000000000001 0.35875 0  1.1 0.35875 0  1.375 0.35875 0  1.65 0.35875 0  1.925 0.35875 0  2.2 0.35875 0  0 0.41 0  0.275 0.41 0  0.55 0.41 0  0.8250000000000001 0.41 0  1.1 0.41 0  1.375 0.41 0  1.65 0.41 0  1.925 0.41 0  2.2 0.41 0  </DataArray>
</Points>
<Cells>
<DataArray  type="UInt32"  Name="connectivity"  format="ascii">0 1 9  1 9 10  1 2 11  1 10 11  2 3 11  3 11 12  3 4 13  3 12 13  4 5 13  5 13 14  5 6 15  5 14 15  6 7 15  7 15 16  7 8 17  7 16 17  9 10 19  9 18 19  10 11 19  11 19 20  11 12 21  11 20 21  12 13 21  13 21 22  13 14 23  13 22 23  14 15 23  15 23 24  15 16 25  15 24 25  16 17 25  17 25 26  18 19 27  19 27 28  19 20 29  19 28 29  20 21 29  21 29 30  21 22 31  21 30 31  22 23 31  23 31 32  23 24 33  23 32 33  24 25 33  25 33 34  25 26 35  25 34 35  27 28 37  27 36 37  28 29 37  29 37 38  29 30 39  29 38 39  30 31 39  31 39 40  31 32 41  31 40 41  32 33 41  33 41 42  33 34 43  33 42 43  34 35 43  35 43 44  36 37 45  37 45 46  37 38 47  37 46 47  38 39 47  39 47 48  39 40 49  39 48 49  40 41 49  41 49 50  41 42 51  41 50 51  42 43 51  43 51 52  43 44 53  43 52 53  45 46 55  45 54 55  46 47 55  47 55 56  47 48 57  47 56 57  48 49 57  49 57 58  49 50 59  49 58 59  50 51 59  51 59 60  51 52 61  51 60 61  52 53 61  53 61 62  54 55 63  55 63 64  55 56 65  55 64 65  56 57 65  57 65 66  57 58 67  57 66 67  58 59 67  59 67 68  59 60 69  59 68 69  60 61 69  61 69 70  61 62 71  61 70 71  63 64 73  63 72 73  64 65 73  65 73 74  65 66 75  65 74 75  66 67 75  67 75 76  67 68 77  67 76 77  68 69 77  69 77 78  69 70 79  69 78 79  70 71 79  71 79 80  </DataArray>
<DataArray  type="UInt32"  Name="offsets"  format="ascii">3 6 9 12 15 18 21 24 27 30 33 36 39 42 45 48 51 54 57 60 63 66 69 72 75 78 81 84 87 90 93 96 99 102 105 108 111 114 117 120 123 126 129 132 135 138 141 144 147 150 153 156 159 162 165 168 171 174 177 180 183 186 189 192 195 198 201 204 207 210 213 216 219 222 225 228 231 234 237 240 243 246 249 252 255 258 261 264 267 270 273 276 279 282 285 288 291 294 297 300 303 306 309 312 315 318 321 324 327 330 333 336 339 342 345 348 351 354 357 360 363 366 369 372 375 378 381 384 </DataArray>
<DataArray  type="UInt8"  Name="types"  format="ascii">5 5 5 5 5 5 5 5 5 5 5 5 5 5 5 5 5 5 5 5 5 5 5 5 5 5 5 5 5 5 5 5 5 5 5 5 5 5 5 5 5 5 5 5 5 5 5 5 5 5 5 5 5 5 5 5 5 5 5 5 5 5 5 5 5 5 5 5 5 5 5 5 5 5 5 5 5 5 5 5 5 5 5 5 5 5 5 5 5 5 5 5 5 5 5 5 5 5 5 5 5 5 5 5 5 5 5 5 5 5 5 5 5 5 5 5 5 5 5 5 5 5 5 5 5 5 5 5 </DataArray>
</Cells>
<PointData  Vectors="f_16"> 
<DataArray  type="Float64"  Name="f_16"  NumberOfComponents="3" format="ascii">2.0711386545194130e-05 -1.9763735179749817e-08 0.0000000000000000e+00  -1.1718521459693107e-06 -8.3937120570773114e-10 0.0000000000000000e+00  1.1702914508252940e-06 -2.7062166182145625e-09 0.0000000000000000e+00  -8.1726298635207583e-06 1.1516269922197481e-08 0.0000000000000000e+00  -2.9494498830166864e-06 -4.2576527189199393e-09 0.0000000000000000e+00  -5.0252778881196733e-06 5.9391651815900362e-08 0.0000000000000000e+00  -6.4876829081366281e-06 8.4640168126789539e-08 0.0000000000000000e+00  -6.7765826574346352e-06 2.7804722796189296e-08 0.0000000000000000e+00  -3.0385224895813284e-06 -5.2974211306842826e-09 0.0000000000000000e+00  6.5624710870708425e-01 -2.1434820754561892e-08 0.0000000000000000e+00  6.5722776447501918e-01 1.1979517304349290e-05 0.0000000000000000e+00  6.5911668623945319e-01 -6.2812508861436714e-04 0.0000000000000000e+00  6.6265230188723412e-01 -7.6627281902952695e-04 0.0000000000000000e+00  6.7719096722754002e-01 -4.7930360244555874e-03 0.0000000000000000e+00  7.2955624547157105e-01 -7.8714536314601052e-03 0.0000000000000000e+00  8.0385164389274000e-01 -6.6384100317578403e-03 0.0000000000000000e+00  8.4792694201305063e-01 -4.4626922755088217e-04 0.0000000000000000e+00  8.4298117547720319e-01 -1.1984316570348326e-03 0.0000000000000000e+00  1.1249843019101180e+00 -1.2372324022153977e-08 0.0000000000000000e+00  1.1256806412520810e+00 -1.1853344859497658e-03 0.0000000000000000e+00  1.1233322010363249e+00 -1.4751805479883146e-03 0.0000000000000000e+00  1.1260489712856447e+00 -1.4473648099905825e-05 0.0000000000000000e+00  1.1220032500590342e+00 -5.2810628461256422e-03 0.0000000000000000e+00  1.1151168986706683e+00 -1.7364309487518069e-02 0.0000000000000000e+00  1.1322933254068288e+00 -1.8639682292870035e-02 0.0000000000000000e+00  1.1796487410586292e+00 -5.9052220863318305e-03 0.0000000000000000e+00  1.1865371611352893e+00 3.0433357527470126e-03 0.0000000000000000e+00  1.4062397923206793e+00 -4.9924100524566091e-09 0.0000000000000000e+00  1.4055248385345218e+00 -9.0752125781234200e-04 0.0000000000000000e+00  1.4102044277716783e+00 -9.2325681138140814e-04 0.0000000000000000e+00  1.4056485991283396e+00 7.6155876574003330e-04 0.0000000000000000e+00  1.3930570416205847e+00 -3.1085755661352014e-03 0.0000000000000000e+00  1.3561832326511167e+00 -1.2268883640829039e-02 0.0000000000000000e+00  1.3034989813495983e+00 -1.5399677901384249e-02 0.0000000000000000e+00  1.2494690522882326e+00 -1.0256519900184046e-02 0.0000000000000000e+00  1.2564817514911288e+00 4.0959195649581340e-03 0.0000000000000000e+00  1.4999820441804261e+00 -6.4674108004430515e-09 0.0000000000000000e+00  1.5018162186499120e+00 -1.4912930734716707e-04 0.0000000000000000e+00  1.5037181842521563e+00 -1.5556885139000735e-04 0.0000000000000000e+00  1.5013169821958985e+00 -4.2523244698882419e-05 0.0000000000000000e+00  1.4801911452920473e+00 3.7956239714826704e-05 0.0000000000000000e+00  1.4410090933845796e+00 7.0192080305807395e-05 0.0000000000000000e+00  1.3666287757931379e+00 9.5286791324347678e-05 0.0000000000000000e+00  1.2654669977827611e+00 2.2364677346353222e-04 0.0000000000000000e+00  1.2599874259062380e+00 9.5495109186893311e-05 0.0000000000000000e+00  1.4062364816096979e+00 -4.6967574613051960e-09 0.0000000000000000e+00  1.4054449913446911e+00 7.1032838077195691e-04 0.0000000000000000e+00  1.4093237737526727e+00 5.6676858941849388e-04 0.0000000000000000e+00  1.4060840539342236e+00 -8.8493245891746095e-04 0.0000000000000000e+00  1.3927883544153152e+00 3.2495317836058147e-03 0.0000000000000000e+00  1.3541062593310165e+00 1.2351680491545997e-02 0.0000000000000000e+00  1.3044992476461135e+00 1.5454582931929034e-02 0.0000000000000000e+00  1.2487950995394228e+00 1.0430379752371446e-02 0.0000000000000000e+00  1.2554369466210276e+00 -4.0700871319535601e-03 0.0000000000000000e+00  1.1249861447956409e+00 9.2570374361002929e-09 0.0000000000000000e+00  1.1253756733330560e+00 7.4778226922063104e-04 0.0000000000000000e+00  1.1244256608940126e+00 1.2864083132166709e-03 0.0000000000000000e+00  1.1243534343234691e+00 -7.9169843163088381e-05 0.0000000000000000e+00  1.1212827720922582e+00 5.4126098398911216e-03 0.0000000000000000e+00  1.1155595100195719e+00 1.7529861561355446e-02 0.0000000000000000e+00  1.1301136423086413e+00 1.8743326710912576e-02 0.0000000000000000e+00  1.1798217719110322e+00 6.1851399402896969e-03 0.0000000000000000e+00  1.1854437979316084e+00 -2.6777166216890029e-03 0.0000000000000000e+00  6.5624168794115356e-01 1.4560008889142784e-08 0.0000000000000000e+00  6.5593597844855245e-01 -1.1691383632868317e-04 0.0000000000000000e+00  6.5727952045382487e-01 5.6380718269359109e-04 0.0000000000000000e+00  6.6094958993353059e-01 7.3450177897107583e-04 0.0000000000000000e+00  6.7581128115122413e-01 4.8019003005912277e-03 0.0000000000000000e+00  7.2786014055405368e-01 7.9384531881840081e-03 0.0000000000000000e+00  8.0392079719916854e-01 6.7401093395418211e-03 0.0000000000000000e+00  8.4557761598161874e-01 5.2459586131766019e-04 0.0000000000000000e+00  8.4423025838149612e-01 1.5811308016440190e-03 0.0000000000000000e+00  -6.8994124972937395e-06 2.5564027040221016e-09 0.0000000000000000e+00  -7.2358542241363278e-06 -6.4510018933435361e-09 0.0000000000000000e+00  -4.5670589516393199e-06 4.5586433759942865e-09 0.0000000000000000e+00  -6.1128712554401208e-06 1.1413409729950141e-08 0.0000000000000000e+00  -2.1431224803219937e-06 4.6461298840752897e-08 0.0000000000000000e+00  -6.9344137280005276e-06 -5.1149720112334593e-09 0.0000000000000000e+00  -8.1984049675278651e-06 -6.2325219907623078e-08 0.0000000000000000e+00  9.3278857714847763e-07 -3.3877830202398509e-08 0.0000000000000000e+00  -1.0913358895034321e-05 -2.3803132478353437e-08 0.0000000000000000e+00  </DataArray> 
</PointData> 
</Piece>
</UnstructuredGrid>
</VTKFile>