<?xml version="1.0"?>
<VTKFile type="UnstructuredGrid"  version="0.1"  >
<UnstructuredGrid>
<Piece  NumberOfPoints="81" NumberOfCells="128">
<Points>
<DataArray  type="Float64"  NumberOfComponents="3"  format="ascii">0 0 0  0.275 0 0  0.55 0 0  0.8250000000000001 0 0  1.1 0 0  1.375 0 0  1.65 0 0  1.925 0 0  2.2 0 0  0 0.05125 0  0.275 0.05125 0  0.55 0.05125 0  0.8250000000000001 0.05125 0  1.1 0.05125 0  1.375 0.05125 0  1.65 0.05125 0  1.925 0.05125 0  2.2 0.05125 0  0 0.1025 0  0.275 0.1025 0  0.55 0.1025 0  0.8250000000000001 0.1025 0  1.1 0.1025 0  1.375 0.1025 0  1.65 0.1025 0  1.925 0.1025 0  2.2 0.1025 0  0 0.15375 0  0.275 0.15375 0  0.55 0.15375 0  0.8250000000000001 0.15375 0  1.1 0.15375 0  1.375 0.15375 0  1.65 0.15375 0  1.925 0.15375 0  2.2 0.15375 0  0 0.205 0  0.275 0.205 0  0.55 0.205 0  0.8250000000000001 0.205 0  1.1 0.205 0  1.375 0.205 0  1.65 0.205 0  1.925 0.205 0  2.2 0.205 0  0 0.25625 0  0.275 0.25625 0  0.55 0.25625 0  0.8250000000000001 0.25625 0  1.1 0.25625 0  1.375 0.25625 0  1.65 0.25625 0  1.925 0.25625 0  2.2 0.25625 0  0 0.3075 0  0.275 0.3075 0  0.55 0.3075 0  0.8250000000000001 0.3075 0  1.1 0.3075 0  1.375 0.3075 0  1.65 0.3075 0  1.925 0.3075 0  2.2 0.3075 0  0 0.35875 0  0.275 0.35875 0  0.55 0.35875 0  0.8250000000000001 0.35875 0  1.1 0.35875 0  1.375 0.35875 0  1.65 0.35875 0  1.925 0.35875 0  2.2 0.35875 0  0 0.41 0  0.275 0.41 0  0.55 0.41 0  0.8250000000000001 0.41 0  1.1 0.41 0  1.375 0.41 0  1.65 0.41 0  1.925 0.41 0  2.2 0.41 0  </DataArray>
</Points>
<Cells>
<DataArray  type="UInt32"  Name="connectivity"  format="ascii">0 1 9  1 9 10  1 2 11  1 10 11  2 3 11  3 11 12  3 4 13  3 12 13  4 5 13  5 13 14  5 6 15  5 14 15  6 7 15  7 15 16  7 8 17  7 16 17  9 10 19  9 18 19  10 11 19  11 19 20  11 12 21  11 20 21  12 13 21  13 21 22  13 14 23  13 22 23  14 15 23  15 23 24  15 16 25  15 24 25  16 17 25  17 25 26  18 19 27  19 27 28  19 20 29  19 28 29  20 21 29  21 29 30  21 22 31  21 30 31  22 23 31  23 31 32  23 24 33  23 32 33  24 25 33  25 33 34  25 26 35  25 34 35  27 28 37  27 36 37  28 29 37  29 37 38  29 30 39  29 38 39  30 31 39  31 39 40  31 32 41  31 40 41  32 33 41  33 41 42  33 34 43  33 42 43  34 35 43  35 43 44  36 37 45  37 45 46  37 38 47  37 46 47  38 39 47  39 47 48  39 40 49  39 48 49  40 41 49  41 49 50  41 42 51  41 50 51  42 43 51  43 51 52  43 44 53  43 52 53  45 46 55  45 54 55  46 47 55  47 55 56  47 48 57  47 56 57  48 49 57  49 57 58  49 50 59  49 58 59  50 51 59  51 59 60  51 52 61  51 60 61  52 53 61  53 61 62  54 55 63  55 63 64  55 56 65  55 64 65  56 57 65  57 65 66  57 58 67  57 66 67  58 59 67  59 67 68  59 60 69  59 68 69  60 61 69  61 69 70  61 62 71  61 70 71  63 64 73  63 72 73  64 65 73  65 73 74  65 66 75  65 74 75  66 67 75  67 75 76  67 68 77  67 76 77  68 69 77  69 77 78  69 70 79  69 78 79  70 71 79  71 79 80  </DataArray>
<DataArray  type="UInt32"  Name="offsets"  format="ascii">3 6 9 12 15 18 21 24 27 30 33 36 39 42 45 48 51 54 57 60 63 66 69 72 75 78 81 84 87 90 93 96 99 102 105 108 111 114 117 120 123 126 129 132 135 138 141 144 147 150 153 156 159 162 165 168 171 174 177 180 183 186 189 192 195 198 201 204 207 210 213 216 219 222 225 228 231 234 237 240 243 246 249 252 255 258 261 264 267 270 273 276 279 282 285 288 291 294 297 300 303 306 309 312 315 318 321 324 327 330 333 336 339 342 345 348 351 354 357 360 363 366 369 372 375 378 381 384 </DataArray>
<DataArray  type="UInt8"  Name="types"  format="ascii">5 5 5 5 5 5 5 5 5 5 5 5 5 5 5 5 5 5 5 5 5 5 5 5 5 5 5 5 5 5 5 5 5 5 5 5 5 5 5 5 5 5 5 5 5 5 5 5 5 5 5 5 5 5 5 5 5 5 5 5 5 5 5 5 5 5 5 5 5 5 5 5 5 5 5 5 5 5 5 5 5 5 5 5 5 5 5 5 5 5 5 5 5 5 5 5 5 5 5 5 5 5 5 5 5 5 5 5 5 5 5 5 5 5 5 5 5 5 5 5 5 5 5 5 5 5 5 5 </DataArray>
</Cells>
<PointData  Vectors="f_16"> 
<DataArray  type="Float64"  Name="f_16"  NumberOfComponents="3" format="ascii">2.0494851004737932e-05 -5.3586964846684781e-09 0.0000000000000000e+00  -1.2072735350139689e-06 4.4082348094564438e-10 0.0000000000000000e+00  1.0361328471860535e-06 7.7087079405394590e-11 0.0000000000000000e+00  -8.2723932197594301e-06 -3.1935384355556196e-09 0.0000000000000000e+00  -2.9152932391225170e-06 1.1150879890693104e-09 0.0000000000000000e+00  -4.7789331316372357e-06 6.3568786039966501e-09 0.0000000000000000e+00  -5.2316014258243244e-06 4.4813261770696835e-09 0.0000000000000000e+00  -5.8774630817552597e-06 1.6660314277443907e-08 0.0000000000000000e+00  -1.1881021078613997e-06 1.7050144345685025e-08 0.0000000000000000e+00  6.5624702526207568e-01 -1.4019447870956616e-09 0.0000000000000000e+00  6.5717221967909478e-01 -1.4871502347859109e-04 0.0000000000000000e+00  6.5788711464297578e-01 2.0104754963194869e-04 0.0000000000000000e+00  6.5820945888171256e-01 -9.1983948930147679e-06 0.0000000000000000e+00  6.5828163537418916e-01 7.7088552613544217e-05 0.0000000000000000e+00  6.5888224957377450e-01 -5.1137909863933486e-05 0.0000000000000000e+00  6.5975713457155871e-01 -3.8317422613322929e-04 0.0000000000000000e+00  6.6877220361096046e-01 -1.8690153475236534e-03 0.0000000000000000e+00  6.9223020370953048e-01 -4.3939471414275759e-03 0.0000000000000000e+00  1.1249841224995749e+00 2.9006674074855388e-09 0.0000000000000000e+00  1.1254185050562906e+00 -6.4691502624877341e-04 0.0000000000000000e+00  1.1242167030666881e+00 -1.3623990966960605e-04 0.0000000000000000e+00  1.1263738959037521e+00 4.7459034425387848e-05 0.0000000000000000e+00  1.1254694125806997e+00 6.8847929632825133e-05 0.0000000000000000e+00  1.1250107952506130e+00 -4.7468487632812446e-05 0.0000000000000000e+00  1.1252199313755729e+00 -4.5912121902967211e-04 0.0000000000000000e+00  1.1250728987015000e+00 -3.0923339650193670e-03 0.0000000000000000e+00  1.1263736971090723e+00 -7.5879441369850831e-03 0.0000000000000000e+00  1.4062395071121006e+00 1.6135754915908845e-09 0.0000000000000000e+00  1.4057165213566207e+00 -2.4374811273884255e-04 0.0000000000000000e+00  1.4071193394281505e+00 7.7079260859679545e-06 0.0000000000000000e+00  1.4042439568160521e+00 5.5255885127740537e-05 0.0000000000000000e+00  1.4067044239641173e+00 -2.1707113550359491e-04 0.0000000000000000e+00  1.4063744418366309e+00 -6.2250695921438115e-06 0.0000000000000000e+00  1.4059108077241749e+00 1.0937506127162658e-04 0.0000000000000000e+00  1.3992236758578325e+00 -2.2022045350793174e-03 0.0000000000000000e+00  1.3817514819028724e+00 -5.4024805243974216e-03 0.0000000000000000e+00  1.4999818672640364e+00 8.9783690912486862e-10 0.0000000000000000e+00  1.5004986011954053e+00 -1.5361936482813891e-04 0.0000000000000000e+00  1.4991494284116988e+00 -1.7308285199647413e-04 0.0000000000000000e+00  1.4990485206776774e+00 -1.0964763510365961e-04 0.0000000000000000e+00  1.4966456285541216e+00 -3.7191943704695230e-05 0.0000000000000000e+00  1.5007104568295484e+00 1.1424537586570403e-04 0.0000000000000000e+00  1.4983845030194005e+00 2.9526254076055549e-04 0.0000000000000000e+00  1.4900337102738570e+00 4.1089937035294823e-04 0.0000000000000000e+00  1.4676519873980760e+00 1.6894014760229353e-04 0.0000000000000000e+00  1.4062361451937930e+00 -8.1518238357259495e-10 0.0000000000000000e+00  1.4056240830606861e+00 2.9632171740566630e-05 0.0000000000000000e+00  1.4062295011026835e+00 -3.8044524608003870e-04 0.0000000000000000e+00  1.4045210361156641e+00 -2.9981854175559604e-04 0.0000000000000000e+00  1.4060528313729357e+00 1.5209702695452251e-04 0.0000000000000000e+00  1.4040675432474126e+00 2.1517645839789777e-04 0.0000000000000000e+00  1.4070400526966749e+00 3.3147735480621636e-04 0.0000000000000000e+00  1.3989964712787395e+00 2.6460857356131254e-03 0.0000000000000000e+00  1.3812540497919246e+00 5.4656282017907032e-03 0.0000000000000000e+00  1.1249860329969603e+00 -1.6657659693028825e-09 0.0000000000000000e+00  1.1251457568015111e+00 2.1925595305411044e-04 0.0000000000000000e+00  1.1252477266846426e+00 -8.3978013944592579e-05 0.0000000000000000e+00  1.1244621916710196e+00 -2.3192813444294889e-04 0.0000000000000000e+00  1.1240554712720805e+00 -4.8205427703594828e-05 0.0000000000000000e+00  1.1248137787001684e+00 2.5499484622282373e-04 0.0000000000000000e+00  1.1230351616332641e+00 8.2983693453895753e-04 0.0000000000000000e+00  1.1259209134807215e+00 3.6505835443569399e-03 0.0000000000000000e+00  1.1261028059039129e+00 7.9815696094302190e-03 0.0000000000000000e+00  6.5624145832543712e-01 1.0350231597489238e-09 0.0000000000000000e+00  6.5592472109894229e-01 4.3266848292336896e-05 0.0000000000000000e+00  6.5606476634461897e-01 -2.6988878485344539e-04 0.0000000000000000e+00  6.5625674905113973e-01 -3.8734093945157072e-05 0.0000000000000000e+00  6.5631107811703904e-01 -1.0531207245943167e-04 0.0000000000000000e+00  6.5627044416842528e-01 1.3244060002342605e-04 0.0000000000000000e+00  6.5975340819393991e-01 6.0904556443184155e-04 0.0000000000000000e+00  6.6729885105183151e-01 2.0323996901565975e-03 0.0000000000000000e+00  6.9411083180921340e-01 4.7959627862945607e-03 0.0000000000000000e+00  -7.0212043753392800e-06 3.3611268464104648e-10 0.0000000000000000e+00  -7.2336504044715466e-06 -9.0789118633335369e-10 0.0000000000000000e+00  -4.6145571037493918e-06 -7.7961722250307507e-10 0.0000000000000000e+00  -6.2679066350891496e-06 3.9006656490060968e-09 0.0000000000000000e+00  -2.2634041829537370e-06 3.1273237448271506e-09 0.0000000000000000e+00  -6.9421463781247268e-06 -1.0634359796442615e-08 0.0000000000000000e+00  -7.0494499897171275e-06 2.2088704457028370e-09 0.0000000000000000e+00  5.9625316331530107e-07 1.4538883648671509e-08 0.0000000000000000e+00  -1.0162702652468245e-05 -4.8021232489492014e-08 0.0000000000000000e+00  </DataArray> 
</PointData> 
</Piece>
</UnstructuredGrid>
</VTKFile>