<?xml version="1.0"?>
<VTKFile type="UnstructuredGrid"  version="0.1"  >
<UnstructuredGrid>
<Piece  NumberOfPoints="81" NumberOfCells="128">
<Points>
<DataArray  type="Float64"  NumberOfComponents="3"  format="ascii">0 0 0  0.275 0 0  0.55 0 0  0.8250000000000001 0 0  1.1 0 0  1.375 0 0  1.65 0 0  1.925 0 0  2.2 0 0  0 0.05125 0  0.275 0.05125 0  0.55 0.05125 0  0.8250000000000001 0.05125 0  1.1 0.05125 0  1.375 0.05125 0  1.65 0.05125 0  1.925 0.05125 0  2.2 0.05125 0  0 0.1025 0  0.275 0.1025 0  0.55 0.1025 0  0.8250000000000001 0.1025 0  1.1 0.1025 0  1.375 0.1025 0  1.65 0.1025 0  1.925 0.1025 0  2.2 0.1025 0  0 0.15375 0  0.275 0.15375 0  0.55 0.15375 0  0.8250000000000001 0.15375 0  1.1 0.15375 0  1.375 0.15375 0  1.65 0.15375 0  1.925 0.15375 0  2.2 0.15375 0  0 0.205 0  0.275 0.205 0  0.55 0.205 0  0.8250000000000001 0.205 0  1.1 0.205 0  1.375 0.205 0  1.65 0.205 0  1.925 0.205 0  2.2 0.205 0  0 0.25625 0  0.275 0.25625 0  0.55 0.25625 0  0.8250000000000001 0.25625 0  1.1 0.25625 0  1.375 0.25625 0  1.65 0.25625 0  1.925 0.25625 0  2.2 0.25625 0  0 0.3075 0  0.275 0.3075 0  0.55 0.3075 0  0.8250000000000001 0.3075 0  1.1 0.3075 0  1.375 0.3075 0  1.65 0.3075 0  1.925 0.3075 0  2.2 0.3075 0  0 0.35875 0  0.275 0.35875 0  0.55 0.35875 0  0.8250000000000001 0.35875 0  1.1 0.35875 0  1.375 0.35875 0  1.65 0.35875 0  1.925 0.35875 0  2.2 0.35875 0  0 0.41 0  0.275 0.41 0  0.55 0.41 0  0.8250000000000001 0.41 0  1.1 0.41 0  1.375 0.41 0  1.65 0.41 0  1.925 0.41 0  2.2 0.41 0  </DataArray>
</Points>
<Cells>
<DataArray  type="UInt32"  Name="connectivity"  format="ascii">0 1 9  1 9 10  1 2 11  1 10 11  2 3 11  3 11 12  3 4 13  3 12 13  4 5 13  5 13 14  5 6 15  5 14 15  6 7 15  7 15 16  7 8 17  7 16 17  9 10 19  9 18 19  10 11 19  11 19 20  11 12 21  11 20 21  12 13 21  13 21 22  13 14 23  13 22 23  14 15 23  15 23 24  15 16 25  15 24 25  16 17 25  17 25 26  18 19 27  19 27 28  19 20 29  19 28 29  20 21 29  21 29 30  21 22 31  21 30 31  22 23 31  23 31 32  23 24 33  23 32 33  24 25 33  25 33 34  25 26 35  25 34 35  27 28 37  27 36 37  28 29 37  29 37 38  29 30 39  29 38 39  30 31 39  31 39 40  31 32 41  31 40 41  32 33 41  33 41 42  33 34 43  33 42 43  34 35 43  35 43 44  36 37 45  37 45 46  37 38 47  37 46 47  38 39 47  39 47 48  39 40 49  39 48 49  40 41 49  41 49 50  41 42 51  41 50 51  42 43 51  43 51 52  43 44 53  43 52 53  45 46 55  45 54 55  46 47 55  47 55 56  47 48 57  47 56 57  48 49 57  49 57 58  49 50 59  49 58 59  50 51 59  51 59 60  51 52 61  51 60 61  52 53 61  53 61 62  54 55 63  55 63 64  55 56 65  55 64 65  56 57 65  57 65 66  57 58 67  57 66 67  58 59 67  59 67 68  59 60 69  59 68 69  60 61 69  61 69 70  61 62 71  61 70 71  63 64 73  63 72 73  64 65 73  65 73 74  65 66 75  65 74 75  66 67 75  67 75 76  67 68 77  67 76 77  68 69 77  69 77 78  69 70 79  69 78 79  70 71 79  71 79 80  </DataArray>
<DataArray  type="UInt32"  Name="offsets"  format="ascii">3 6 9 12 15 18 21 24 27 30 33 36 39 42 45 48 51 54 57 60 63 66 69 72 75 78 81 84 87 90 93 96 99 102 105 108 111 114 117 120 123 126 129 132 135 138 141 144 147 150 153 156 159 162 165 168 171 174 177 180 183 186 189 192 195 198 201 204 207 210 213 216 219 222 225 228 231 234 237 240 243 246 249 252 255 258 261 264 267 270 273 276 279 282 285 288 291 294 297 300 303 306 309 312 315 318 321 324 327 330 333 336 339 342 345 348 351 354 357 360 363 366 369 372 375 378 381 384 </DataArray>
<DataArray  type="UInt8"  Name="types"  format="ascii">5 5 5 5 5 5 5 5 5 5 5 5 5 5 5 5 5 5 5 5 5 5 5 5 5 5 5 5 5 5 5 5 5 5 5 5 5 5 5 5 5 5 5 5 5 5 5 5 5 5 5 5 5 5 5 5 5 5 5 5 5 5 5 5 5 5 5 5 5 5 5 5 5 5 5 5 5 5 5 5 5 5 5 5 5 5 5 5 5 5 5 5 5 5 5 5 5 5 5 5 5 5 5 5 5 5 5 5 5 5 5 5 5 5 5 5 5 5 5 5 5 5 5 5 5 5 5 5 </DataArray>
</Cells>
<PointData  Vectors="f_16"> 
<DataArray  type="Float64"  Name="f_16"  NumberOfComponents="3" format="ascii">2.0490085511850427e-05 -4.3710533310964757e-09 0.0000000000000000e+00  -1.2010879882573124e-06 -3.3680270745801267e-11 0.0000000000000000e+00  1.0433074039812130e-06 -8.2062928924703903e-10 0.0000000000000000e+00  -8.2930172303742895e-06 8.2866967304618243e-10 0.0000000000000000e+00  -2.9395392928557529e-06 -1.2708756899885111e-10 0.0000000000000000e+00  -4.7729418117089215e-06 -6.3760525003130772e-10 0.0000000000000000e+00  -5.1852857202164932e-06 -2.6823693967946246e-10 0.0000000000000000e+00  -5.9230342255534300e-06 -7.4474614487936277e-10 0.0000000000000000e+00  -1.2401036010092988e-06 1.6524782643599255e-10 0.0000000000000000e+00  6.5624702246624522e-01 -4.5113036504296949e-10 0.0000000000000000e+00  6.5715219618833720e-01 -1.2962202604235436e-04 0.0000000000000000e+00  6.5835946998287109e-01 1.3416565362290008e-04 0.0000000000000000e+00  6.5821576664396031e-01 -3.3490156179875842e-05 0.0000000000000000e+00  6.5876383970962094e-01 -1.6512608364230680e-05 0.0000000000000000e+00  6.5862844830394895e-01 4.0119524411675034e-05 0.0000000000000000e+00  6.5834225576345307e-01 1.1570435748102897e-06 0.0000000000000000e+00  6.5748968886587122e-01 2.4685097562015034e-05 0.0000000000000000e+00  6.5743885093862142e-01 -2.6349607602529313e-05 0.0000000000000000e+00  1.1249841013471067e+00 7.3447799835139741e-10 0.0000000000000000e+00  1.1255611412813109e+00 -6.2317392630628166e-04 0.0000000000000000e+00  1.1238679911111031e+00 -1.5898477813948260e-04 0.0000000000000000e+00  1.1264882866797956e+00 -1.3724152572406760e-04 0.0000000000000000e+00  1.1256210034804999e+00 2.1110103927534062e-05 0.0000000000000000e+00  1.1252397456098513e+00 1.8379868235419273e-04 0.0000000000000000e+00  1.1251824818450789e+00 1.4215417086208443e-04 0.0000000000000000e+00  1.1246443488575544e+00 2.0629916963551959e-04 0.0000000000000000e+00  1.1241132674287033e+00 1.7737835908650682e-04 0.0000000000000000e+00  1.4062394807683387e+00 -2.0568377271137648e-10 0.0000000000000000e+00  1.4055677312157175e+00 -1.6294766962221644e-04 0.0000000000000000e+00  1.4068616633323947e+00 -1.5367106632602865e-04 0.0000000000000000e+00  1.4047768847452713e+00 -1.7732655165272681e-04 0.0000000000000000e+00  1.4071633713887415e+00 -1.6321044151791986e-04 0.0000000000000000e+00  1.4060297167261135e+00 9.1496505246266516e-05 0.0000000000000000e+00  1.4057863129734987e+00 1.5563334885524739e-04 0.0000000000000000e+00  1.4056361179406587e+00 2.2579312231175831e-04 0.0000000000000000e+00  1.4055034683846683e+00 1.5560817833701730e-04 0.0000000000000000e+00  1.4999818426539542e+00 8.6635018336077092e-10 0.0000000000000000e+00  1.5000558518408316e+00 -1.5651954886803401e-04 0.0000000000000000e+00  1.4989435544312266e+00 -1.8338539703781801e-04 0.0000000000000000e+00  1.4996519572185911e+00 -1.2610442554351404e-04 0.0000000000000000e+00  1.4972775097653970e+00 -6.2139351731683461e-05 0.0000000000000000e+00  1.4992203398937092e+00 8.9043350600010647e-05 0.0000000000000000e+00  1.4985673560865205e+00 2.8931417161817864e-04 0.0000000000000000e+00  1.4981049856094066e+00 4.6792965968440960e-04 0.0000000000000000e+00  1.4981286140450676e+00 3.5294004282261974e-04 0.0000000000000000e+00  1.4062361160723296e+00 7.4963871714059368e-10 0.0000000000000000e+00  1.4054768553659847e+00 -5.5004589476330965e-05 0.0000000000000000e+00  1.4059584294159504e+00 -2.2997624513139561e-04 0.0000000000000000e+00  1.4050058415876676e+00 -9.6074554380957795e-05 0.0000000000000000e+00  1.4064349105453371e+00 5.0690040233460949e-05 0.0000000000000000e+00  1.4036133383378278e+00 7.2513567525915465e-05 0.0000000000000000e+00  1.4066937205658485e+00 2.2317083501335126e-04 0.0000000000000000e+00  1.4052067227072766e+00 3.5435587560768482e-04 0.0000000000000000e+00  1.4050585919433580e+00 3.5061684566363324e-04 0.0000000000000000e+00  1.1249860147980584e+00 1.8550078026327935e-10 0.0000000000000000e+00  1.1252925397648552e+00 1.9437048047037835e-04 0.0000000000000000e+00  1.1248783663136281e+00 -6.9924535158066384e-05 0.0000000000000000e+00  1.1245151055308567e+00 -6.7709882609805119e-05 0.0000000000000000e+00  1.1240576648561198e+00 -3.1409620628573148e-05 0.0000000000000000e+00  1.1247914391303047e+00 -6.7622576890882149e-06 0.0000000000000000e+00  1.1226082940917579e+00 2.2666217899040581e-04 0.0000000000000000e+00  1.1251299166757629e+00 4.5037784168825616e-04 0.0000000000000000e+00  1.1241251886568819e+00 4.9516074635145321e-04 0.0000000000000000e+00  6.5624143979214689e-01 -1.8275488477469470e-10 0.0000000000000000e+00  6.5590669453707906e-01 2.3910109683653209e-05 0.0000000000000000e+00  6.5652799684961149e-01 -2.0473100651534446e-04 0.0000000000000000e+00  6.5620777415986320e-01 -1.9218156672677915e-05 0.0000000000000000e+00  6.5665134546433901e-01 -2.2765584608760357e-05 0.0000000000000000e+00  6.5573512159073577e-01 3.6295545461154933e-05 0.0000000000000000e+00  6.5791977652039257e-01 2.2385183368210226e-04 0.0000000000000000e+00  6.5580228898170034e-01 1.8091109123737349e-04 0.0000000000000000e+00  6.5986436528549020e-01 5.5782721535936489e-04 0.0000000000000000e+00  -7.0279561273443215e-06 -8.7756513442339746e-10 0.0000000000000000e+00  -7.2263648499514550e-06 -4.9682284644520603e-10 0.0000000000000000e+00  -4.6034224703319660e-06 -3.4138324139956279e-10 0.0000000000000000e+00  -6.2745675816722554e-06 9.3312857489798032e-10 0.0000000000000000e+00  -2.2745476781699681e-06 1.2664407533649873e-09 0.0000000000000000e+00  -6.9277023740491585e-06 -1.5661296933134472e-09 0.0000000000000000e+00  -7.0878322884238548e-06 -6.3029430484157180e-10 0.0000000000000000e+00  4.7745292503036708e-07 5.0293178164675086e-10 0.0000000000000000e+00  -1.0285167368656039e-05 -4.4850683656748034e-09 0.0000000000000000e+00  </DataArray> 
</PointData> 
</Piece>
</UnstructuredGrid>
</VTKFile>