<?xml version="1.0"?>
<VTKFile type="UnstructuredGrid"  version="0.1"  >
<UnstructuredGrid>
<Piece  NumberOfPoints="81" NumberOfCells="128">
<Points>
<DataArray  type="Float64"  NumberOfComponents="3"  format="ascii">0 0 0  0.275 0 0  0.55 0 0  0.8250000000000001 0 0  1.1 0 0  1.375 0 0  1.65 0 0  1.925 0 0  2.2 0 0  0 0.05125 0  0.275 0.05125 0  0.55 0.05125 0  0.8250000000000001 0.05125 0  1.1 0.05125 0  1.375 0.05125 0  1.65 0.05125 0  1.925 0.05125 0  2.2 0.05125 0  0 0.1025 0  0.275 0.1025 0  0.55 0.1025 0  0.8250000000000001 0.1025 0  1.1 0.1025 0  1.375 0.1025 0  1.65 0.1025 0  1.925 0.1025 0  2.2 0.1025 0  0 0.15375 0  0.275 0.15375 0  0.55 0.15375 0  0.8250000000000001 0.15375 0  1.1 0.15375 0  1.375 0.15375 0  1.65 0.15375 0  1.925 0.15375 0  2.2 0.15375 0  0 0.205 0  0.275 0.205 0  0.55 0.205 0  0.8250000000000001 0.205 0  1.1 0.205 0  1.375 0.205 0  1.65 0.205 0  1.925 0.205 0  2.2 0.205 0  0 0.25625 0  0.275 0.25625 0  0.55 0.25625 0  0.8250000000000001 0.25625 0  1.1 0.25625 0  1.375 0.25625 0  1.65 0.25625 0  1.925 0.25625 0  2.2 0.25625 0  0 0.3075 0  0.275 0.3075 0  0.55 0.3075 0  0.8250000000000001 0.3075 0  1.1 0.3075 0  1.375 0.3075 0  1.65 0.3075 0  1.925 0.3075 0  2.2 0.3075 0  0 0.35875 0  0.275 0.35875 0  0.55 0.35875 0  0.8250000000000001 0.35875 0  1.1 0.35875 0  1.375 0.35875 0  1.65 0.35875 0  1.925 0.35875 0  2.2 0.35875 0  0 0.41 0  0.275 0.41 0  0.55 0.41 0  0.8250000000000001 0.41 0  1.1 0.41 0  1.375 0.41 0  1.65 0.41 0  1.925 0.41 0  2.2 0.41 0  </DataArray>
</Points>
<Cells>
<DataArray  type="UInt32"  Name="connectivity"  format="ascii">0 1 9  1 9 10  1 2 11  1 10 11  2 3 11  3 11 12  3 4 13  3 12 13  4 5 13  5 13 14  5 6 15  5 14 15  6 7 15  7 15 16  7 8 17  7 16 17  9 10 19  9 18 19  10 11 19  11 19 20  11 12 21  11 20 21  12 13 21  13 21 22  13 14 23  13 22 23  14 15 23  15 23 24  15 16 25  15 24 25  16 17 25  17 25 26  18 19 27  19 27 28  19 20 29  19 28 29  20 21 29  21 29 30  21 22 31  21 30 31  22 23 31  23 31 32  23 24 33  23 32 33  24 25 33  25 33 34  25 26 35  25 34 35  27 28 37  27 36 37  28 29 37  29 37 38  29 30 39  29 38 39  30 31 39  31 39 40  31 32 41  31 40 41  32 33 41  33 41 42  33 34 43  33 42 43  34 35 43  35 43 44  36 37 45  37 45 46  37 38 47  37 46 47  38 39 47  39 47 48  39 40 49  39 48 49  40 41 49  41 49 50  41 42 51  41 50 51  42 43 51  43 51 52  43 44 53  43 52 53  45 46 55  45 54 55  46 47 55  47 55 56  47 48 57  47 56 57  48 49 57  49 57 58  49 50 59  49 58 59  50 51 59  51 59 60  51 52 61  51 60 61  52 53 61  53 61 62  54 55 63  55 63 64  55 56 65  55 64 65  56 57 65  57 65 66  57 58 67  57 66 67  58 59 67  59 67 68  59 60 69  59 68 69  60 61 69  61 69 70  61 62 71  61 70 71  63 64 73  63 72 73  64 65 73  65 73 74  65 66 75  65 74 75  66 67 75  67 75 76  67 68 77  67 76 77  68 69 77  69 77 78  69 70 79  69 78 79  70 71 79  71 79 80  </DataArray>
<DataArray  type="UInt32"  Name="offsets"  format="ascii">3 6 9 12 15 18 21 24 27 30 33 36 39 42 45 48 51 54 57 60 63 66 69 72 75 78 81 84 87 90 93 96 99 102 105 108 111 114 117 120 123 126 129 132 135 138 141 144 147 150 153 156 159 162 165 168 171 174 177 180 183 186 189 192 195 198 201 204 207 210 213 216 219 222 225 228 231 234 237 240 243 246 249 252 255 258 261 264 267 270 273 276 279 282 285 288 291 294 297 300 303 306 309 312 315 318 321 324 327 330 333 336 339 342 345 348 351 354 357 360 363 366 369 372 375 378 381 384 </DataArray>
<DataArray  type="UInt8"  Name="types"  format="ascii">5 5 5 5 5 5 5 5 5 5 5 5 5 5 5 5 5 5 5 5 5 5 5 5 5 5 5 5 5 5 5 5 5 5 5 5 5 5 5 5 5 5 5 5 5 5 5 5 5 5 5 5 5 5 5 5 5 5 5 5 5 5 5 5 5 5 5 5 5 5 5 5 5 5 5 5 5 5 5 5 5 5 5 5 5 5 5 5 5 5 5 5 5 5 5 5 5 5 5 5 5 5 5 5 5 5 5 5 5 5 5 5 5 5 5 5 5 5 5 5 5 5 5 5 5 5 5 5 </DataArray>
</Cells>
<PointData  Vectors="f_16"> 
<DataArray  type="Float64"  Name="f_16"  NumberOfComponents="3" format="ascii">2.0489342799254809e-05 -4.4206352383378790e-09 0.0000000000000000e+00  -1.2015379254711634e-06 -1.4900843311714274e-11 0.0000000000000000e+00  1.0437834482180836e-06 -1.0119988594784255e-09 0.0000000000000000e+00  -8.2924025129066550e-06 1.0051039429845439e-09 0.0000000000000000e+00  -2.9405856066217242e-06 1.3781979879330482e-10 0.0000000000000000e+00  -4.7738913651486806e-06 -9.4151856871576437e-10 0.0000000000000000e+00  -5.1841335777528194e-06 -5.6240378397668147e-10 0.0000000000000000e+00  -5.9219437181263532e-06 -4.5046964151938018e-10 0.0000000000000000e+00  -1.2401278599166571e-06 2.1393330641501912e-10 0.0000000000000000e+00  6.5624702167983584e-01 -2.1787437073898312e-10 0.0000000000000000e+00  6.5713902696890203e-01 -1.3023705260469795e-04 0.0000000000000000e+00  6.5835890901499416e-01 1.3575450185427805e-04 0.0000000000000000e+00  6.5821224431456460e-01 -3.2275643671788435e-05 0.0000000000000000e+00  6.5875029759252290e-01 -1.8218263717870713e-05 0.0000000000000000e+00  6.5863091950099384e-01 3.6216360586579821e-05 0.0000000000000000e+00  6.5834571981918955e-01 4.2506318265875000e-06 0.0000000000000000e+00  6.5749234628189901e-01 2.3305702287600799e-05 0.0000000000000000e+00  6.5745759135877901e-01 -3.1155094750962904e-05 0.0000000000000000e+00  1.1249841006075911e+00 1.1369134846826121e-09 0.0000000000000000e+00  1.1255557921791157e+00 -6.2225322969543771e-04 0.0000000000000000e+00  1.1238783138787563e+00 -1.4959251477023158e-04 0.0000000000000000e+00  1.1264565914068476e+00 -1.3041813920244556e-04 0.0000000000000000e+00  1.1256025882466847e+00 5.5209087174259645e-06 0.0000000000000000e+00  1.1252745665229493e+00 1.7660869861516737e-04 0.0000000000000000e+00  1.1251964846140790e+00 1.5840341405409336e-04 0.0000000000000000e+00  1.1246179079536767e+00 2.0430425233599017e-04 0.0000000000000000e+00  1.1241296931550391e+00 1.5794567012094489e-04 0.0000000000000000e+00  1.4062394797728135e+00 1.9049122520468483e-11 0.0000000000000000e+00  1.4055905419936896e+00 -1.6134555070545852e-04 0.0000000000000000e+00  1.4068220084004139e+00 -1.3757355017812888e-04 0.0000000000000000e+00  1.4046953489312710e+00 -1.8537931480006975e-04 0.0000000000000000e+00  1.4072200846607450e+00 -1.8773914191690252e-04 0.0000000000000000e+00  1.4061403047124899e+00 1.0609069889094507e-04 0.0000000000000000e+00  1.4057515068484197e+00 1.7250478886088837e-04 0.0000000000000000e+00  1.4056011256126337e+00 2.0857110140224845e-04 0.0000000000000000e+00  1.4055385939477292e+00 1.4258442474422462e-04 0.0000000000000000e+00  1.4999818416822415e+00 8.9004848498641812e-10 0.0000000000000000e+00  1.5000841907242610e+00 -1.5729143575343246e-04 0.0000000000000000e+00  1.4988670320426065e+00 -1.8323284932277297e-04 0.0000000000000000e+00  1.4995469251238080e+00 -1.2494159356835587e-04 0.0000000000000000e+00  1.4973839796282966e+00 -6.3445943534089387e-05 0.0000000000000000e+00  1.4993701284082908e+00 8.6369948002331312e-05 0.0000000000000000e+00  1.4984940400871922e+00 2.8857166917761620e-04 0.0000000000000000e+00  1.4980714448639110e+00 4.6670762548973928e-04 0.0000000000000000e+00  1.4981517778310958e+00 3.5098298555752758e-04 0.0000000000000000e+00  1.4062361150152063e+00 5.3574927466350997e-10 0.0000000000000000e+00  1.4054977526073449e+00 -5.7302185192988780e-05 0.0000000000000000e+00  1.4059188299480969e+00 -2.4556892648373445e-04 0.0000000000000000e+00  1.4049277195431920e+00 -8.6854421885183478e-05 0.0000000000000000e+00  1.4064889601112793e+00 7.2860617126015251e-05 0.0000000000000000e+00  1.4037163709236382e+00 5.3798214711508727e-05 0.0000000000000000e+00  1.4066537488901623e+00 2.0457991720199232e-04 0.0000000000000000e+00  1.4051623368146005e+00 3.6940014236747407e-04 0.0000000000000000e+00  1.4050775358058085e+00 3.6009015686607588e-04 0.0000000000000000e+00  1.1249860141136980e+00 -2.2008135808131258e-10 0.0000000000000000e+00  1.1252866600420406e+00 1.9294899191732052e-04 0.0000000000000000e+00  1.1248865229951142e+00 -7.9730518579594628e-05 0.0000000000000000e+00  1.1244838388874856e+00 -7.3798012127251799e-05 0.0000000000000000e+00  1.1240380434720050e+00 -1.6517843201131850e-05 0.0000000000000000e+00  1.1248171951640420e+00 -2.3583170839071161e-06 0.0000000000000000e+00  1.1226080545398998e+00 2.0845527294349674e-04 0.0000000000000000e+00  1.1250851535300126e+00 4.5111373800344834e-04 0.0000000000000000e+00  1.1241142216359508e+00 5.1318195871078679e-04 0.0000000000000000e+00  6.5624143907455745e-01 -4.0495272221917333e-10 0.0000000000000000e+00  6.5589388433948026e-01 2.4531058270767971e-05 0.0000000000000000e+00  6.5652669562335775e-01 -2.0656223244074146e-04 0.0000000000000000e+00  6.5620213145049999e-01 -2.0655531590503639e-05 0.0000000000000000e+00  6.5663463938331312e-01 -2.1145289365888318e-05 0.0000000000000000e+00  6.5572962915279298e-01 3.9641719827938997e-05 0.0000000000000000e+00  6.5790911114385564e-01 2.1997720387237677e-04 0.0000000000000000e+00  6.5578537741914633e-01 1.8172381324218847e-04 0.0000000000000000e+00  6.5986080806559833e-01 5.6276616507787566e-04 0.0000000000000000e+00  -7.0286938328007593e-06 -8.1578018034912411e-10 0.0000000000000000e+00  -7.2267984481665270e-06 -4.8450788603466481e-10 0.0000000000000000e+00  -4.6028202678427234e-06 -1.4670314140093738e-10 0.0000000000000000e+00  -6.2737990536475743e-06 7.7641033968868662e-10 0.0000000000000000e+00  -2.2756759728838502e-06 9.9210964950102696e-10 0.0000000000000000e+00  -6.9286211237170512e-06 -1.2872290713192155e-09 0.0000000000000000e+00  -7.0864001722462357e-06 -3.2375433664159702e-10 0.0000000000000000e+00  4.7861092861619265e-07 2.7131059133907866e-10 0.0000000000000000e+00  -1.0284958818817652e-05 -4.5854231969787454e-09 0.0000000000000000e+00  </DataArray> 
</PointData> 
</Piece>
</UnstructuredGrid>
</VTKFile>