<?xml version="1.0"?>
<VTKFile type="UnstructuredGrid"  version="0.1"  >
<UnstructuredGrid>
<Piece  NumberOfPoints="81" NumberOfCells="128">
<Points>
<DataArray  type="Float64"  NumberOfComponents="3"  format="ascii">0 0 0  0.275 0 0  0.55 0 0  0.8250000000000001 0 0  1.1 0 0  1.375 0 0  1.65 0 0  1.925 0 0  2.2 0 0  0 0.05125 0  0.275 0.05125 0  0.55 0.05125 0  0.8250000000000001 0.05125 0  1.1 0.05125 0  1.375 0.05125 0  1.65 0.05125 0  1.925 0.05125 0  2.2 0.05125 0  0 0.1025 0  0.275 0.1025 0  0.55 0.1025 0  0.8250000000000001 0.1025 0  1.1 0.1025 0  1.375 0.1025 0  1.65 0.1025 0  1.925 0.1025 0  2.2 0.1025 0  0 0.15375 0  0.275 0.15375 0  0.55 0.15375 0  0.8250000000000001 0.15375 0  1.1 0.15375 0  1.375 0.15375 0  1.65 0.15375 0  1.925 0.15375 0  2.2 0.15375 0  0 0.205 0  0.275 0.205 0  0.55 0.205 0  0.8250000000000001 0.205 0  1.1 0.205 0  1.375 0.205 0  1.65 0.205 0  1.925 0.205 0  2.2 0.205 0  0 0.25625 0  0.275 0.25625 0  0.55 0.25625 0  0.8250000000000001 0.25625 0  1.1 0.25625 0  1.375 0.25625 0  1.65 0.25625 0  1.925 0.25625 0  2.2 0.25625 0  0 0.3075 0  0.275 0.3075 0  0.55 0.3075 0  0.8250000000000001 0.3075 0  1.1 0.3075 0  1.375 0.3075 0  1.65 0.3075 0  1.925 0.3075 0  2.2 0.3075 0  0 0.35875 0  0.275 0.35875 0  0.55 0.35875 0  0.8250000000000001 0.35875 0  1.1 0.35875 0  1.375 0.35875 0  1.65 0.35875 0  1.925 0.35875 0  2.2 0.35875 0  0 0.41 0  0.275 0.41 0  0.55 0.41 0  0.8250000000000001 0.41 0  1.1 0.41 0  1.375 0.41 0  1.65 0.41 0  1.925 0.41 0  2.2 0.41 0  </DataArray>
</Points>
<Cells>
<DataArray  type="UInt32"  Name="connectivity"  format="ascii">0 1 9  1 9 10  1 2 11  1 10 11  2 3 11  3 11 12  3 4 13  3 12 13  4 5 13  5 13 14  5 6 15  5 14 15  6 7 15  7 15 16  7 8 17  7 16 17  9 10 19  9 18 19  10 11 19  11 19 20  11 12 21  11 20 21  12 13 21  13 21 22  13 14 23  13 22 23  14 15 23  15 23 24  15 16 25  15 24 25  16 17 25  17 25 26  18 19 27  19 27 28  19 20 29  19 28 29  20 21 29  21 29 30  21 22 31  21 30 31  22 23 31  23 31 32  23 24 33  23 32 33  24 25 33  25 33 34  25 26 35  25 34 35  27 28 37  27 36 37  28 29 37  29 37 38  29 30 39  29 38 39  30 31 39  31 39 40  31 32 41  31 40 41  32 33 41  33 41 42  33 34 43  33 42 43  34 35 43  35 43 44  36 37 45  37 45 46  37 38 47  37 46 47  38 39 47  39 47 48  39 40 49  39 48 49  40 41 49  41 49 50  41 42 51  41 50 51  42 43 51  43 51 52  43 44 53  43 52 53  45 46 55  45 54 55  46 47 55  47 55 56  47 48 57  47 56 57  48 49 57  49 57 58  49 50 59  49 58 59  50 51 59  51 59 60  51 52 61  51 60 61  52 53 61  53 61 62  54 55 63  55 63 64  55 56 65  55 64 65  56 57 65  57 65 66  57 58 67  57 66 67  58 59 67  59 67 68  59 60 69  59 68 69  60 61 69  61 69 70  61 62 71  61 70 71  63 64 73  63 72 73  64 65 73  65 73 74  65 66 75  65 74 75  66 67 75  67 75 76  67 68 77  67 76 77  68 69 77  69 77 78  69 70 79  69 78 79  70 71 79  71 79 80  </DataArray>
<DataArray  type="UInt32"  Name="offsets"  format="ascii">3 6 9 12 15 18 21 24 27 30 33 36 39 42 45 48 51 54 57 60 63 66 69 72 75 78 81 84 87 90 93 96 99 102 105 108 111 114 117 120 123 126 129 132 135 138 141 144 147 150 153 156 159 162 165 168 171 174 177 180 183 186 189 192 195 198 201 204 207 210 213 216 219 222 225 228 231 234 237 240 243 246 249 252 255 258 261 264 267 270 273 276 279 282 285 288 291 294 297 300 303 306 309 312 315 318 321 324 327 330 333 336 339 342 345 348 351 354 357 360 363 366 369 372 375 378 381 384 </DataArray>
<DataArray  type="UInt8"  Name="types"  format="ascii">5 5 5 5 5 5 5 5 5 5 5 5 5 5 5 5 5 5 5 5 5 5 5 5 5 5 5 5 5 5 5 5 5 5 5 5 5 5 5 5 5 5 5 5 5 5 5 5 5 5 5 5 5 5 5 5 5 5 5 5 5 5 5 5 5 5 5 5 5 5 5 5 5 5 5 5 5 5 5 5 5 5 5 5 5 5 5 5 5 5 5 5 5 5 5 5 5 5 5 5 5 5 5 5 5 5 5 5 5 5 5 5 5 5 5 5 5 5 5 5 5 5 5 5 5 5 5 5 </DataArray>
</Cells>
<PointData  Vectors="f_16"> 
<DataArray  type="Float64"  Name="f_16"  NumberOfComponents="3" format="ascii">2.1131331431361239e-05 -4.7979627032017660e-08 0.0000000000000000e+00  -1.0677251885572668e-06 -5.1463134940756854e-09 0.0000000000000000e+00  1.4077147765933494e-06 -1.1923184684015848e-08 0.0000000000000000e+00  -8.3532918344745070e-06 2.1882002787063753e-08 0.0000000000000000e+00  -3.3178229653317811e-06 -1.5885150196269648e-08 0.0000000000000000e+00  -5.4174240257788826e-06 6.2156731921561612e-08 0.0000000000000000e+00  -7.3260617919346145e-06 -1.3221329866973634e-08 0.0000000000000000e+00  -6.9407638900225868e-06 3.9101347993447511e-08 0.0000000000000000e+00  -3.3987805231754774e-06 -1.6957075840775602e-08 0.0000000000000000e+00  6.5624721538171393e-01 -3.5491480979227332e-08 0.0000000000000000e+00  6.6107560274306876e-01 -6.4915604586104241e-04 0.0000000000000000e+00  6.5886254413941059e-01 2.0979534222812272e-05 0.0000000000000000e+00  6.7846783171264957e-01 -4.1193166601159745e-03 0.0000000000000000e+00  7.4658174384745080e-01 -1.3094789495171210e-02 0.0000000000000000e+00  8.3199667153150647e-01 -1.1244293877517710e-02 0.0000000000000000e+00  8.9315672600824469e-01 -7.4617662660706005e-04 0.0000000000000000e+00  8.7308299887522633e-01 -5.0438904893155482e-04 0.0000000000000000e+00  8.8462739314513894e-01 -1.9447894625714612e-04 0.0000000000000000e+00  1.1249844576911308e+00 -1.6907937195834293e-08 0.0000000000000000e+00  1.1268580011039793e+00 -1.5012164010504325e-03 0.0000000000000000e+00  1.1250313981119069e+00 -1.5794338800670582e-03 0.0000000000000000e+00  1.1321604269711529e+00 -4.8219253057913683e-03 0.0000000000000000e+00  1.1107293494783794e+00 -1.8772634970167661e-02 0.0000000000000000e+00  1.1167825320195408e+00 -3.2757791288819796e-02 0.0000000000000000e+00  1.1789484831221850e+00 -5.7524058651870647e-03 0.0000000000000000e+00  1.1835463012938581e+00 5.3625219636555333e-03 0.0000000000000000e+00  1.1830277201140185e+00 -4.9238247946026695e-03 0.0000000000000000e+00  1.4062398321331624e+00 -1.7599256400773454e-08 0.0000000000000000e+00  1.4069690257901288e+00 -1.4260208283798938e-03 0.0000000000000000e+00  1.4133778540804349e+00 6.6651668460492703e-04 0.0000000000000000e+00  1.3988592608984911e+00 -2.0697195437635002e-03 0.0000000000000000e+00  1.3484131330700262e+00 -1.3979317117808270e-02 0.0000000000000000e+00  1.2760400843293891e+00 -2.2584773519153535e-02 0.0000000000000000e+00  1.2157777200070463e+00 -7.0771766677258149e-03 0.0000000000000000e+00  1.2374072196517643e+00 3.5876406428293059e-03 0.0000000000000000e+00  1.2192828195180023e+00 -6.6883493314879245e-03 0.0000000000000000e+00  1.4999821583431996e+00 -2.1776890157023985e-08 0.0000000000000000e+00  1.5022420512698453e+00 -1.5507883597699258e-04 0.0000000000000000e+00  1.5055055107209259e+00 -1.2605931098149843e-04 0.0000000000000000e+00  1.4888906586312225e+00 6.1973399553026743e-05 0.0000000000000000e+00  1.4224587973144753e+00 -2.8042841323467423e-05 0.0000000000000000e+00  1.3428917746976619e+00 -4.0353700885872245e-06 0.0000000000000000e+00  1.2250922317211628e+00 1.7561764576892532e-04 0.0000000000000000e+00  1.2389163133954120e+00 1.9129743743131501e-04 0.0000000000000000e+00  1.2231925759447952e+00 9.4546406051996374e-05 0.0000000000000000e+00  1.4062365784081632e+00 -1.0082624692884446e-08 0.0000000000000000e+00  1.4068451639403399e+00 1.2409241712954496e-03 0.0000000000000000e+00  1.4125228409533581e+00 -9.7368202404400314e-04 0.0000000000000000e+00  1.3994774612047194e+00 2.0453875081109293e-03 0.0000000000000000e+00  1.3481820954228105e+00 1.3949045495337072e-02 0.0000000000000000e+00  1.2736420532041290e+00 2.2577642605588265e-02 0.0000000000000000e+00  1.2169092756072384e+00 7.2059116635360791e-03 0.0000000000000000e+00  1.2368841308769880e+00 -3.4434260286473782e-03 0.0000000000000000e+00  1.2183379186247070e+00 6.6185816469135628e-03 0.0000000000000000e+00  1.1249862267657573e+00 2.1381498141677647e-09 0.0000000000000000e+00  1.1265501671218667e+00 1.0652674782070846e-03 0.0000000000000000e+00  1.1261114531568346e+00 1.4201223242130575e-03 0.0000000000000000e+00  1.1308261375271647e+00 4.8270233278822792e-03 0.0000000000000000e+00  1.1102783086040606e+00 1.8823038842082269e-02 0.0000000000000000e+00  1.1169742145906079e+00 3.2814327923293876e-02 0.0000000000000000e+00  1.1768878321708898e+00 5.8508082424045009e-03 0.0000000000000000e+00  1.1838676559218508e+00 -4.9848909146847043e-03 0.0000000000000000e+00  1.1820749975047355e+00 5.1723702150757557e-03 0.0000000000000000e+00  6.5624177913288617e-01 2.4181863424639971e-08 0.0000000000000000e+00  6.5980288113759189e-01 5.4578981401953264e-04 0.0000000000000000e+00  6.5714415596373921e-01 -7.3544394951054784e-05 0.0000000000000000e+00  6.7700609040614346e-01 4.1054444001817538e-03 0.0000000000000000e+00  7.4558106815444403e-01 1.3059237644698638e-02 0.0000000000000000e+00  8.3055058261818193e-01 1.1260409561899649e-02 0.0000000000000000e+00  8.9294428811673321e-01 8.5174475649922425e-04 0.0000000000000000e+00  8.7089425747501525e-01 6.1757026092554073e-04 0.0000000000000000e+00  8.8568334125696269e-01 4.4354116187729362e-04 0.0000000000000000e+00  -6.7033225282843975e-06 1.8599345577278905e-08 0.0000000000000000e+00  -7.1336251769646990e-06 -3.6776193935208152e-09 0.0000000000000000e+00  -4.4449281422791230e-06 1.0828004492108929e-08 0.0000000000000000e+00  -5.9016476358076405e-06 1.0047276914587861e-08 0.0000000000000000e+00  -2.2746255482357078e-06 -3.3354885673878101e-08 0.0000000000000000e+00  -7.1862339161055188e-06 -5.2218016673217971e-08 0.0000000000000000e+00  -8.7503894988915707e-06 4.7545152553236911e-08 0.0000000000000000e+00  1.2090266906317987e-06 1.0680184780847438e-08 0.0000000000000000e+00  -1.1060272468639674e-05 4.3974536992066059e-09 0.0000000000000000e+00  </DataArray> 
</PointData> 
</Piece>
</UnstructuredGrid>
</VTKFile>