<?xml version="1.0"?>
<VTKFile type="UnstructuredGrid"  version="0.1"  >
<UnstructuredGrid>
<Piece  NumberOfPoints="81" NumberOfCells="128">
<Points>
<DataArray  type="Float64"  NumberOfComponents="3"  format="ascii">0 0 0  0.275 0 0  0.55 0 0  0.8250000000000001 0 0  1.1 0 0  1.375 0 0  1.65 0 0  1.925 0 0  2.2 0 0  0 0.05125 0  0.275 0.05125 0  0.55 0.05125 0  0.8250000000000001 0.05125 0  1.1 0.05125 0  1.375 0.05125 0  1.65 0.05125 0  1.925 0.05125 0  2.2 0.05125 0  0 0.1025 0  0.275 0.1025 0  0.55 0.1025 0  0.8250000000000001 0.1025 0  1.1 0.1025 0  1.375 0.1025 0  1.65 0.1025 0  1.925 0.1025 0  2.2 0.1025 0  0 0.15375 0  0.275 0.15375 0  0.55 0.15375 0  0.8250000000000001 0.15375 0  1.1 0.15375 0  1.375 0.15375 0  1.65 0.15375 0  1.925 0.15375 0  2.2 0.15375 0  0 0.205 0  0.275 0.205 0  0.55 0.205 0  0.8250000000000001 0.205 0  1.1 0.205 0  1.375 0.205 0  1.65 0.205 0  1.925 0.205 0  2.2 0.205 0  0 0.25625 0  0.275 0.25625 0  0.55 0.25625 0  0.8250000000000001 0.25625 0  1.1 0.25625 0  1.375 0.25625 0  1.65 0.25625 0  1.925 0.25625 0  2.2 0.25625 0  0 0.3075 0  0.275 0.3075 0  0.55 0.3075 0  0.8250000000000001 0.3075 0  1.1 0.3075 0  1.375 0.3075 0  1.65 0.3075 0  1.925 0.3075 0  2.2 0.3075 0  0 0.35875 0  0.275 0.35875 0  0.55 0.35875 0  0.8250000000000001 0.35875 0  1.1 0.35875 0  1.375 0.35875 0  1.65 0.35875 0  1.925 0.35875 0  2.2 0.35875 0  0 0.41 0  0.275 0.41 0  0.55 0.41 0  0.8250000000000001 0.41 0  1.1 0.41 0  1.375 0.41 0  1.65 0.41 0  1.925 0.41 0  2.2 0.41 0  </DataArray>
</Points>
<Cells>
<DataArray  type="UInt32"  Name="connectivity"  format="ascii">0 1 9  1 9 10  1 2 11  1 10 11  2 3 11  3 11 12  3 4 13  3 12 13  4 5 13  5 13 14  5 6 15  5 14 15  6 7 15  7 15 16  7 8 17  7 16 17  9 10 19  9 18 19  10 11 19  11 19 20  11 12 21  11 20 21  12 13 21  13 21 22  13 14 23  13 22 23  14 15 23  15 23 24  15 16 25  15 24 25  16 17 25  17 25 26  18 19 27  19 27 28  19 20 29  19 28 29  20 21 29  21 29 30  21 22 31  21 30 31  22 23 31  23 31 32  23 24 33  23 32 33  24 25 33  25 33 34  25 26 35  25 34 35  27 28 37  27 36 37  28 29 37  29 37 38  29 30 39  29 38 39  30 31 39  31 39 40  31 32 41  31 40 41  32 33 41  33 41 42  33 34 43  33 42 43  34 35 43  35 43 44  36 37 45  37 45 46  37 38 47  37 46 47  38 39 47  39 47 48  39 40 49  39 48 49  40 41 49  41 49 50  41 42 51  41 50 51  42 43 51  43 51 52  43 44 53  43 52 53  45 46 55  45 54 55  46 47 55  47 55 56  47 48 57  47 56 57  48 49 57  49 57 58  49 50 59  49 58 59  50 51 59  51 59 60  51 52 61  51 60 61  52 53 61  53 61 62  54 55 63  55 63 64  55 56 65  55 64 65  56 57 65  57 65 66  57 58 67  57 66 67  58 59 67  59 67 68  59 60 69  59 68 69  60 61 69  61 69 70  61 62 71  61 70 71  63 64 73  63 72 73  64 65 73  65 73 74  65 66 75  65 74 75  66 67 75  67 75 76  67 68 77  67 76 77  68 69 77  69 77 78  69 70 79  69 78 79  70 71 79  71 79 80  </DataArray>
<DataArray  type="UInt32"  Name="offsets"  format="ascii">3 6 9 12 15 18 21 24 27 30 33 36 39 42 45 48 51 54 57 60 63 66 69 72 75 78 81 84 87 90 93 96 99 102 105 108 111 114 117 120 123 126 129 132 135 138 141 144 147 150 153 156 159 162 165 168 171 174 177 180 183 186 189 192 195 198 201 204 207 210 213 216 219 222 225 228 231 234 237 240 243 246 249 252 255 258 261 264 267 270 273 276 279 282 285 288 291 294 297 300 303 306 309 312 315 318 321 324 327 330 333 336 339 342 345 348 351 354 357 360 363 366 369 372 375 378 381 384 </DataArray>
<DataArray  type="UInt8"  Name="types"  format="ascii">5 5 5 5 5 5 5 5 5 5 5 5 5 5 5 5 5 5 5 5 5 5 5 5 5 5 5 5 5 5 5 5 5 5 5 5 5 5 5 5 5 5 5 5 5 5 5 5 5 5 5 5 5 5 5 5 5 5 5 5 5 5 5 5 5 5 5 5 5 5 5 5 5 5 5 5 5 5 5 5 5 5 5 5 5 5 5 5 5 5 5 5 5 5 5 5 5 5 5 5 5 5 5 5 5 5 5 5 5 5 5 5 5 5 5 5 5 5 5 5 5 5 5 5 5 5 5 5 </DataArray>
</Cells>
<PointData  Vectors="f_16"> 
<DataArray  type="Float64"  Name="f_16"  NumberOfComponents="3" format="ascii">2.0489881365896786e-05 -4.4243820510324097e-09 0.0000000000000000e+00  -1.2013027159749394e-06 -1.5126360613635358e-11 0.0000000000000000e+00  1.0435800009004523e-06 -9.6708777414131635e-10 0.0000000000000000e+00  -8.2927037454848871e-06 9.5565448090274439e-10 0.0000000000000000e+00  -2.9402473091505476e-06 -2.8322435787895645e-12 0.0000000000000000e+00  -4.7736204666664953e-06 -7.8413507193863911e-10 0.0000000000000000e+00  -5.1848872686786708e-06 -4.0285698140295832e-10 0.0000000000000000e+00  -5.9222975523730143e-06 -5.0956996729257664e-10 0.0000000000000000e+00  -1.2391981161187181e-06 1.8065504765805319e-10 0.0000000000000000e+00  6.5624702216986286e-01 -3.0748132476398083e-10 0.0000000000000000e+00  6.5712391669496506e-01 -1.2747105310002832e-04 0.0000000000000000e+00  6.5837105968950516e-01 1.3382541541739134e-04 0.0000000000000000e+00  6.5820360501689601e-01 -3.2459083584899787e-05 0.0000000000000000e+00  6.5877271035007912e-01 -1.9837214675134962e-05 0.0000000000000000e+00  6.5863174059933949e-01 3.7477271750082005e-05 0.0000000000000000e+00  6.5835820985909099e-01 1.0252570388889939e-06 0.0000000000000000e+00  6.5750525954248906e-01 2.7500558087006497e-05 0.0000000000000000e+00  6.5751036363520243e-01 -4.2712811018783612e-05 0.0000000000000000e+00  1.1249841011890893e+00 9.7874756795332116e-10 0.0000000000000000e+00  1.1255462220277346e+00 -6.1951802878962704e-04 0.0000000000000000e+00  1.1238783313900949e+00 -1.5509113088569412e-04 0.0000000000000000e+00  1.1264615114663661e+00 -1.3195575831919426e-04 0.0000000000000000e+00  1.1256147025635508e+00 1.0841920158690511e-05 0.0000000000000000e+00  1.1252539278341060e+00 1.8247407854814795e-04 0.0000000000000000e+00  1.1251991138167279e+00 1.4946434040895748e-04 0.0000000000000000e+00  1.1246464821091895e+00 2.1164361911639519e-04 0.0000000000000000e+00  1.1241638735086954e+00 1.4375368344506437e-04 0.0000000000000000e+00  1.4062394804389140e+00 -9.7734444176460748e-11 0.0000000000000000e+00  1.4055807579818762e+00 -1.6348736065901166e-04 0.0000000000000000e+00  1.4068447161990705e+00 -1.4472746387951776e-04 0.0000000000000000e+00  1.4047307081568914e+00 -1.8360209580355912e-04 0.0000000000000000e+00  1.4072042346227149e+00 -1.7907199803356993e-04 0.0000000000000000e+00  1.4061090850347806e+00 9.8309398685112874e-05 0.0000000000000000e+00  1.4057920533137687e+00 1.5889689112568629e-04 0.0000000000000000e+00  1.4056756276175644e+00 2.1161908501247413e-04 0.0000000000000000e+00  1.4055789965859384e+00 1.3027624509302256e-04 0.0000000000000000e+00  1.4999818423702436e+00 8.8374755503939131e-10 0.0000000000000000e+00  1.5000646493548615e+00 -1.5745925356822228e-04 0.0000000000000000e+00  1.4988967219002687e+00 -1.8411984796974147e-04 0.0000000000000000e+00  1.4995853643453638e+00 -1.2701107665574271e-04 0.0000000000000000e+00  1.4973405956456824e+00 -6.5615095276474591e-05 0.0000000000000000e+00  1.4993186085013464e+00 8.3106390838608344e-05 0.0000000000000000e+00  1.4985523207253224e+00 2.8133512625284809e-04 0.0000000000000000e+00  1.4981444574806981e+00 4.5798304357320252e-04 0.0000000000000000e+00  1.4981954971451472e+00 3.4190444199259869e-04 0.0000000000000000e+00  1.4062361157063081e+00 6.5333559979029574e-10 0.0000000000000000e+00  1.4054884247007491e+00 -5.5422121863574034e-05 0.0000000000000000e+00  1.4059407116355087e+00 -2.3943630139788873e-04 0.0000000000000000e+00  1.4049575743337233e+00 -9.2067190746158504e-05 0.0000000000000000e+00  1.4064676445830200e+00 6.0729175936719309e-05 0.0000000000000000e+00  1.4036736451559946e+00 5.4654549354638035e-05 0.0000000000000000e+00  1.4066684551761668e+00 2.0439245914484160e-04 0.0000000000000000e+00  1.4051937870744877e+00 3.5078070616308187e-04 0.0000000000000000e+00  1.4050547626514780e+00 3.5615638984910671e-04 0.0000000000000000e+00  1.1249860145824904e+00 -4.7039262354763057e-11 0.0000000000000000e+00  1.1252776612485109e+00 1.8998967525649349e-04 0.0000000000000000e+00  1.1248848394594757e+00 -7.5128773695157518e-05 0.0000000000000000e+00  1.1244828406438243e+00 -7.4564214545056647e-05 0.0000000000000000e+00  1.1240361433143251e+00 -2.5193457241052012e-05 0.0000000000000000e+00  1.1247735534591516e+00 -1.2777812548562334e-05 0.0000000000000000e+00  1.1225634864268057e+00 2.0917653101859974e-04 0.0000000000000000e+00  1.1250345273092486e+00 4.3351666667619233e-04 0.0000000000000000e+00  1.1240293877764318e+00 5.1684474381113153e-04 0.0000000000000000e+00  6.5624143956831105e-01 -3.0496403061986171e-10 0.0000000000000000e+00  6.5587885137649871e-01 2.1679336609850718e-05 0.0000000000000000e+00  6.5653662019379511e-01 -2.0492755193867292e-04 0.0000000000000000e+00  6.5618692310128979e-01 -2.1118272892006440e-05 0.0000000000000000e+00  6.5664261866765172e-01 -2.0957844230921244e-05 0.0000000000000000e+00  6.5570087192647863e-01 3.6442029730294806e-05 0.0000000000000000e+00  6.5786940728445220e-01 2.2013340795868321e-04 0.0000000000000000e+00  6.5571541274886280e-01 1.7427085449087646e-04 0.0000000000000000e+00  6.5979801621493084e-01 5.7126856801294928e-04 0.0000000000000000e+00  -7.0282565854897397e-06 -8.2110049901175372e-10 0.0000000000000000e+00  -7.2265644252259482e-06 -4.9909340367808313e-10 0.0000000000000000e+00  -4.6030855405942051e-06 -2.1919734657578606e-10 0.0000000000000000e+00  -6.2741490558582480e-06 8.3937184554182989e-10 0.0000000000000000e+00  -2.2752970283136502e-06 1.1024572902707762e-09 0.0000000000000000e+00  -6.9280666728142028e-06 -1.3838048020081063e-09 0.0000000000000000e+00  -7.0867606654192504e-06 -4.1116644201659980e-10 0.0000000000000000e+00  4.7830787353069442e-07 3.8102767312064142e-10 0.0000000000000000e+00  -1.0283448728242319e-05 -4.4948153631387480e-09 0.0000000000000000e+00  </DataArray> 
</PointData> 
</Piece>
</UnstructuredGrid>
</VTKFile>