<?xml version="1.0"?>
<VTKFile type="UnstructuredGrid"  version="0.1"  >
<UnstructuredGrid>
<Piece  NumberOfPoints="81" NumberOfCells="128">
<Points>
<DataArray  type="Float64"  NumberOfComponents="3"  format="ascii">0 0 0  0.275 0 0  0.55 0 0  0.8250000000000001 0 0  1.1 0 0  1.375 0 0  1.65 0 0  1.925 0 0  2.2 0 0  0 0.05125 0  0.275 0.05125 0  0.55 0.05125 0  0.8250000000000001 0.05125 0  1.1 0.05125 0  1.375 0.05125 0  1.65 0.05125 0  1.925 0.05125 0  2.2 0.05125 0  0 0.1025 0  0.275 0.1025 0  0.55 0.1025 0  0.8250000000000001 0.1025 0  1.1 0.1025 0  1.375 0.1025 0  1.65 0.1025 0  1.925 0.1025 0  2.2 0.1025 0  0 0.15375 0  0.275 0.15375 0  0.55 0.15375 0  0.8250000000000001 0.15375 0  1.1 0.15375 0  1.375 0.15375 0  1.65 0.15375 0  1.925 0.15375 0  2.2 0.15375 0  0 0.205 0  0.275 0.205 0  0.55 0.205 0  0.8250000000000001 0.205 0  1.1 0.205 0  1.375 0.205 0  1.65 0.205 0  1.925 0.205 0  2.2 0.205 0  0 0.25625 0  0.275 0.25625 0  0.55 0.25625 0  0.8250000000000001 0.25625 0  1.1 0.25625 0  1.375 0.25625 0  1.65 0.25625 0  1.925 0.25625 0  2.2 0.25625 0  0 0.3075 0  0.275 0.3075 0  0.55 0.3075 0  0.8250000000000001 0.3075 0  1.1 0.3075 0  1.375 0.3075 0  1.65 0.3075 0  1.925 0.3075 0  2.2 0.3075 0  0 0.35875 0  0.275 0.35875 0  0.55 0.35875 0  0.8250000000000001 0.35875 0  1.1 0.35875 0  1.375 0.35875 0  1.65 0.35875 0  1.925 0.35875 0  2.2 0.35875 0  0 0.41 0  0.275 0.41 0  0.55 0.41 0  0.8250000000000001 0.41 0  1.1 0.41 0  1.375 0.41 0  1.65 0.41 0  1.925 0.41 0  2.2 0.41 0  </DataArray>
</Points>
<Cells>
<DataArray  type="UInt32"  Name="connectivity"  format="ascii">0 1 9  1 9 10  1 2 11  1 10 11  2 3 11  3 11 12  3 4 13  3 12 13  4 5 13  5 13 14  5 6 15  5 14 15  6 7 15  7 15 16  7 8 17  7 16 17  9 10 19  9 18 19  10 11 19  11 19 20  11 12 21  11 20 21  12 13 21  13 21 22  13 14 23  13 22 23  14 15 23  15 23 24  15 16 25  15 24 25  16 17 25  17 25 26  18 19 27  19 27 28  19 20 29  19 28 29  20 21 29  21 29 30  21 22 31  21 30 31  22 23 31  23 31 32  23 24 33  23 32 33  24 25 33  25 33 34  25 26 35  25 34 35  27 28 37  27 36 37  28 29 37  29 37 38  29 30 39  29 38 39  30 31 39  31 39 40  31 32 41  31 40 41  32 33 41  33 41 42  33 34 43  33 42 43  34 35 43  35 43 44  36 37 45  37 45 46  37 38 47  37 46 47  38 39 47  39 47 48  39 40 49  39 48 49  40 41 49  41 49 50  41 42 51  41 50 51  42 43 51  43 51 52  43 44 53  43 52 53  45 46 55  45 54 55  46 47 55  47 55 56  47 48 57  47 56 57  48 49 57  49 57 58  49 50 59  49 58 59  50 51 59  51 59 60  51 52 61  51 60 61  52 53 61  53 61 62  54 55 63  55 63 64  55 56 65  55 64 65  56 57 65  57 65 66  57 58 67  57 66 67  58 59 67  59 67 68  59 60 69  59 68 69  60 61 69  61 69 70  61 62 71  61 70 71  63 64 73  63 72 73  64 65 73  65 73 74  65 66 75  65 74 75  66 67 75  67 75 76  67 68 77  67 76 77  68 69 77  69 77 78  69 70 79  69 78 79  70 71 79  71 79 80  </DataArray>
<DataArray  type="UInt32"  Name="offsets"  format="ascii">3 6 9 12 15 18 21 24 27 30 33 36 39 42 45 48 51 54 57 60 63 66 69 72 75 78 81 84 87 90 93 96 99 102 105 108 111 114 117 120 123 126 129 132 135 138 141 144 147 150 153 156 159 162 165 168 171 174 177 180 183 186 189 192 195 198 201 204 207 210 213 216 219 222 225 228 231 234 237 240 243 246 249 252 255 258 261 264 267 270 273 276 279 282 285 288 291 294 297 300 303 306 309 312 315 318 321 324 327 330 333 336 339 342 345 348 351 354 357 360 363 366 369 372 375 378 381 384 </DataArray>
<DataArray  type="UInt8"  Name="types"  format="ascii">5 5 5 5 5 5 5 5 5 5 5 5 5 5 5 5 5 5 5 5 5 5 5 5 5 5 5 5 5 5 5 5 5 5 5 5 5 5 5 5 5 5 5 5 5 5 5 5 5 5 5 5 5 5 5 5 5 5 5 5 5 5 5 5 5 5 5 5 5 5 5 5 5 5 5 5 5 5 5 5 5 5 5 5 5 5 5 5 5 5 5 5 5 5 5 5 5 5 5 5 5 5 5 5 5 5 5 5 5 5 5 5 5 5 5 5 5 5 5 5 5 5 5 5 5 5 5 5 </DataArray>
</Cells>
<PointData  Vectors="f_16"> 
<DataArray  type="Float64"  Name="f_16"  NumberOfComponents="3" format="ascii">2.0488673817654536e-05 -4.3156916260376990e-09 0.0000000000000000e+00  -1.2013376116368345e-06 -8.9287599685074692e-11 0.0000000000000000e+00  1.0447289546773311e-06 -1.0448156965943953e-09 0.0000000000000000e+00  -8.2928938917334143e-06 1.1860595724037894e-09 0.0000000000000000e+00  -2.9420548126792837e-06 9.7280646013569378e-11 0.0000000000000000e+00  -4.7734665100154177e-06 -1.1269004932860441e-09 0.0000000000000000e+00  -5.1829637105788513e-06 -3.5634242697266501e-10 0.0000000000000000e+00  -5.9233089972222852e-06 -1.6926820108415406e-10 0.0000000000000000e+00  -1.2427997272664007e-06 2.6067139378097158e-10 0.0000000000000000e+00  6.5624702145973957e-01 -1.0456068407980794e-10 0.0000000000000000e+00  6.5716449364285612e-01 -1.3048142792772662e-04 0.0000000000000000e+00  6.5837307162359937e-01 1.3607276315445594e-04 0.0000000000000000e+00  6.5822473124891701e-01 -3.3688490360564403e-05 0.0000000000000000e+00  6.5876760202557183e-01 -2.3278752901979836e-05 0.0000000000000000e+00  6.5862427255907352e-01 4.1497912339951612e-05 0.0000000000000000e+00  6.5836200191181926e-01 4.5553786996846520e-06 0.0000000000000000e+00  6.5746870050133444e-01 3.0384020145106343e-05 0.0000000000000000e+00  6.5741250446563748e-01 -3.5382811371154096e-05 0.0000000000000000e+00  1.1249840996483300e+00 9.5412107261755310e-10 0.0000000000000000e+00  1.1255829371957209e+00 -6.2275040693429262e-04 0.0000000000000000e+00  1.1238609642699091e+00 -1.4767065138163084e-04 0.0000000000000000e+00  1.1264623258116617e+00 -1.4652191164798542e-04 0.0000000000000000e+00  1.1256201603041800e+00 2.3816349760747435e-06 0.0000000000000000e+00  1.1252848251745908e+00 1.9683410278249560e-04 0.0000000000000000e+00  1.1251877518227817e+00 1.5203071173709319e-04 0.0000000000000000e+00  1.1246146221878057e+00 2.0853705065126436e-04 0.0000000000000000e+00  1.1241165065241339e+00 1.8762229135053867e-04 0.0000000000000000e+00  1.4062394793482840e+00 -1.6864461263798502e-10 0.0000000000000000e+00  1.4055711277000988e+00 -1.5279723055740279e-04 0.0000000000000000e+00  1.4067797910022650e+00 -1.4237826334449999e-04 0.0000000000000000e+00  1.4047325876473491e+00 -1.9862816615595156e-04 0.0000000000000000e+00  1.4072795601704295e+00 -1.8008565752247627e-04 0.0000000000000000e+00  1.4060952546805012e+00 1.2195519136846026e-04 0.0000000000000000e+00  1.4056705338850037e+00 1.6114328111004037e-04 0.0000000000000000e+00  1.4055888955237483e+00 2.1120580095704009e-04 0.0000000000000000e+00  1.4056041073506194e+00 1.7744833638110681e-04 0.0000000000000000e+00  1.4999818403181413e+00 8.9161352462022801e-10 0.0000000000000000e+00  1.5000605764096082e+00 -1.5661990023205894e-04 0.0000000000000000e+00  1.4988340892663135e+00 -1.8231707557746381e-04 0.0000000000000000e+00  1.4996311207011181e+00 -1.2518241337964315e-04 0.0000000000000000e+00  1.4974438183337135e+00 -6.3001658240735263e-05 0.0000000000000000e+00  1.4992588897282526e+00 8.9865472899333714e-05 0.0000000000000000e+00  1.4984077059596599e+00 2.9193803065404684e-04 0.0000000000000000e+00  1.4980682878667630e+00 4.6923985705388092e-04 0.0000000000000000e+00  1.4982270192872948e+00 3.5341137214632708e-04 0.0000000000000000e+00  1.4062361145228504e+00 7.1873585623785592e-10 0.0000000000000000e+00  1.4054794371806398e+00 -6.5251677206099550e-05 0.0000000000000000e+00  1.4058797328866746e+00 -2.3934019612652680e-04 0.0000000000000000e+00  1.4049649015328134e+00 -7.3047615358589422e-05 0.0000000000000000e+00  1.4065484222182727e+00 6.5962965599728555e-05 0.0000000000000000e+00  1.4036802678166964e+00 4.2981191051491820e-05 0.0000000000000000e+00  1.4065869050323412e+00 2.2232744705061764e-04 0.0000000000000000e+00  1.4051702477236523e+00 3.7161988400763197e-04 0.0000000000000000e+00  1.4051708539949983e+00 3.2881149418982294e-04 0.0000000000000000e+00  1.1249860131007607e+00 -2.9990628911649807e-11 0.0000000000000000e+00  1.1253128280304716e+00 1.9370089508583834e-04 0.0000000000000000e+00  1.1248715953944346e+00 -8.0767163613490683e-05 0.0000000000000000e+00  1.1244931925613706e+00 -5.7232151564505057e-05 0.0000000000000000e+00  1.1240610531956394e+00 -1.2146934718405838e-05 0.0000000000000000e+00  1.1248407369971578e+00 -1.8934562406873499e-05 0.0000000000000000e+00  1.1226252384264250e+00 2.1848527809056290e-04 0.0000000000000000e+00  1.1251201900191437e+00 4.4996027330293411e-04 0.0000000000000000e+00  1.1241509333905049e+00 4.8487903969801106e-04 0.0000000000000000e+00  6.5624143873839968e-01 -5.1937394380701286e-10 0.0000000000000000e+00  6.5591872296259646e-01 2.4722359793849575e-05 0.0000000000000000e+00  6.5654148842254501e-01 -2.0661056349926955e-04 0.0000000000000000e+00  6.5621820451779944e-01 -1.8822358118417371e-05 0.0000000000000000e+00  6.5665906824616793e-01 -1.5766105412560297e-05 0.0000000000000000e+00  6.5573938510641672e-01 3.5472659230561946e-05 0.0000000000000000e+00  6.5795193850345701e-01 2.2093298645100740e-04 0.0000000000000000e+00  6.5579906537309984e-01 1.7564457197886708e-04 0.0000000000000000e+00  6.5985636107465517e-01 5.6624291523107127e-04 0.0000000000000000e+00  -7.0293604024466042e-06 -9.5660221534998387e-10 0.0000000000000000e+00  -7.2266523455314937e-06 -4.3915454359388479e-10 0.0000000000000000e+00  -4.6018140125633872e-06 -1.4465582083990202e-10 0.0000000000000000e+00  -6.2743035741118760e-06 5.9262478220389552e-10 0.0000000000000000e+00  -2.2770588130301130e-06 1.0901974357847031e-09 0.0000000000000000e+00  -6.9282891504404716e-06 -1.0761797089694230e-09 0.0000000000000000e+00  -7.0855052257782064e-06 -5.5704794708207730e-10 0.0000000000000000e+00  4.7722840827653179e-07 -1.1243235195374227e-10 0.0000000000000000e+00  -1.0288268683979298e-05 -4.5382078065880741e-09 0.0000000000000000e+00  </DataArray> 
</PointData> 
</Piece>
</UnstructuredGrid>
</VTKFile>