<?xml version="1.0"?>
<VTKFile type="UnstructuredGrid"  version="0.1"  >
<UnstructuredGrid>
<Piece  NumberOfPoints="81" NumberOfCells="128">
<Points>
<DataArray  type="Float64"  NumberOfComponents="3"  format="ascii">0 0 0  0.275 0 0  0.55 0 0  0.8250000000000001 0 0  1.1 0 0  1.375 0 0  1.65 0 0  1.925 0 0  2.2 0 0  0 0.05125 0  0.275 0.05125 0  0.55 0.05125 0  0.8250000000000001 0.05125 0  1.1 0.05125 0  1.375 0.05125 0  1.65 0.05125 0  1.925 0.05125 0  2.2 0.05125 0  0 0.1025 0  0.275 0.1025 0  0.55 0.1025 0  0.8250000000000001 0.1025 0  1.1 0.1025 0  1.375 0.1025 0  1.65 0.1025 0  1.925 0.1025 0  2.2 0.1025 0  0 0.15375 0  0.275 0.15375 0  0.55 0.15375 0  0.8250000000000001 0.15375 0  1.1 0.15375 0  1.375 0.15375 0  1.65 0.15375 0  1.925 0.15375 0  2.2 0.15375 0  0 0.205 0  0.275 0.205 0  0.55 0.205 0  0.8250000000000001 0.205 0  1.1 0.205 0  1.375 0.205 0  1.65 0.205 0  1.925 0.205 0  2.2 0.205 0  0 0.25625 0  0.275 0.25625 0  0.55 0.25625 0  0.8250000000000001 0.25625 0  1.1 0.25625 0  1.375 0.25625 0  1.65 0.25625 0  1.925 0.25625 0  2.2 0.25625 0  0 0.3075 0  0.275 0.3075 0  0.55 0.3075 0  0.8250000000000001 0.3075 0  1.1 0.3075 0  1.375 0.3075 0  1.65 0.3075 0  1.925 0.3075 0  2.2 0.3075 0  0 0.35875 0  0.275 0.35875 0  0.55 0.35875 0  0.8250000000000001 0.35875 0  1.1 0.35875 0  1.375 0.35875 0  1.65 0.35875 0  1.925 0.35875 0  2.2 0.35875 0  0 0.41 0  0.275 0.41 0  0.55 0.41 0  0.8250000000000001 0.41 0  1.1 0.41 0  1.375 0.41 0  1.65 0.41 0  1.925 0.41 0  2.2 0.41 0  </DataArray>
</Points>
<Cells>
<DataArray  type="UInt32"  Name="connectivity"  format="ascii">0 1 9  1 9 10  1 2 11  1 10 11  2 3 11  3 11 12  3 4 13  3 12 13  4 5 13  5 13 14  5 6 15  5 14 15  6 7 15  7 15 16  7 8 17  7 16 17  9 10 19  9 18 19  10 11 19  11 19 20  11 12 21  11 20 21  12 13 21  13 21 22  13 14 23  13 22 23  14 15 23  15 23 24  15 16 25  15 24 25  16 17 25  17 25 26  18 19 27  19 27 28  19 20 29  19 28 29  20 21 29  21 29 30  21 22 31  21 30 31  22 23 31  23 31 32  23 24 33  23 32 33  24 25 33  25 33 34  25 26 35  25 34 35  27 28 37  27 36 37  28 29 37  29 37 38  29 30 39  29 38 39  30 31 39  31 39 40  31 32 41  31 40 41  32 33 41  33 41 42  33 34 43  33 42 43  34 35 43  35 43 44  36 37 45  37 45 46  37 38 47  37 46 47  38 39 47  39 47 48  39 40 49  39 48 49  40 41 49  41 49 50  41 42 51  41 50 51  42 43 51  43 51 52  43 44 53  43 52 53  45 46 55  45 54 55  46 47 55  47 55 56  47 48 57  47 56 57  48 49 57  49 57 58  49 50 59  49 58 59  50 51 59  51 59 60  51 52 61  51 60 61  52 53 61  53 61 62  54 55 63  55 63 64  55 56 65  55 64 65  56 57 65  57 65 66  57 58 67  57 66 67  58 59 67  59 67 68  59 60 69  59 68 69  60 61 69  61 69 70  61 62 71  61 70 71  63 64 73  63 72 73  64 65 73  65 73 74  65 66 75  65 74 75  66 67 75  67 75 76  67 68 77  67 76 77  68 69 77  69 77 78  69 70 79  69 78 79  70 71 79  71 79 80  </DataArray>
<DataArray  type="UInt32"  Name="offsets"  format="ascii">3 6 9 12 15 18 21 24 27 30 33 36 39 42 45 48 51 54 57 60 63 66 69 72 75 78 81 84 87 90 93 96 99 102 105 108 111 114 117 120 123 126 129 132 135 138 141 144 147 150 153 156 159 162 165 168 171 174 177 180 183 186 189 192 195 198 201 204 207 210 213 216 219 222 225 228 231 234 237 240 243 246 249 252 255 258 261 264 267 270 273 276 279 282 285 288 291 294 297 300 303 306 309 312 315 318 321 324 327 330 333 336 339 342 345 348 351 354 357 360 363 366 369 372 375 378 381 384 </DataArray>
<DataArray  type="UInt8"  Name="types"  format="ascii">5 5 5 5 5 5 5 5 5 5 5 5 5 5 5 5 5 5 5 5 5 5 5 5 5 5 5 5 5 5 5 5 5 5 5 5 5 5 5 5 5 5 5 5 5 5 5 5 5 5 5 5 5 5 5 5 5 5 5 5 5 5 5 5 5 5 5 5 5 5 5 5 5 5 5 5 5 5 5 5 5 5 5 5 5 5 5 5 5 5 5 5 5 5 5 5 5 5 5 5 5 5 5 5 5 5 5 5 5 5 5 5 5 5 5 5 5 5 5 5 5 5 5 5 5 5 5 5 </DataArray>
</Cells>
<PointData  Vectors="f_16"> 
<DataArray  type="Float64"  Name="f_16"  NumberOfComponents="3" format="ascii">2.0521862012112876e-05 -5.1209766674532380e-09 0.0000000000000000e+00  -1.2188638824445662e-06 -7.6953583717684734e-09 0.0000000000000000e+00  1.2031391735984774e-06 -1.9642975408713893e-08 0.0000000000000000e+00  -8.1522821378744435e-06 2.4215012243494661e-08 0.0000000000000000e+00  -3.0076546457005070e-06 1.6888653852492775e-08 0.0000000000000000e+00  -4.9433501446278161e-06 1.3148862778374850e-08 0.0000000000000000e+00  -6.0050368050288810e-06 4.8181940621839056e-08 0.0000000000000000e+00  -6.7143793193628542e-06 4.8877955981401792e-08 0.0000000000000000e+00  -3.2145741765121123e-06 3.0759400458399943e-08 0.0000000000000000e+00  6.5624700703249395e-01 1.4281990597247471e-08 0.0000000000000000e+00  6.5762821831067364e-01 -2.5927770879843599e-04 0.0000000000000000e+00  6.5865670426658018e-01 2.5478384650814355e-04 0.0000000000000000e+00  6.5955412967024118e-01 -6.0179955435837015e-05 0.0000000000000000e+00  6.6428295229782108e-01 -1.7670490542372659e-03 0.0000000000000000e+00  6.9878767948936793e-01 -5.9651876716003780e-03 0.0000000000000000e+00  7.6051165722780956e-01 -7.4779765360569739e-03 0.0000000000000000e+00  8.1664154947808232e-01 -5.6787080860226475e-03 0.0000000000000000e+00  8.2724218227389723e-01 1.7665477638059471e-03 0.0000000000000000e+00  1.1249841451930205e+00 1.1997604245357318e-08 0.0000000000000000e+00  1.1252692720362798e+00 -6.7031499349089825e-04 0.0000000000000000e+00  1.1229946430430930e+00 6.7700156473378891e-04 0.0000000000000000e+00  1.1238579232879624e+00 -3.3167658894026823e-04 0.0000000000000000e+00  1.1255184882135882e+00 -3.0281136307543097e-03 0.0000000000000000e+00  1.1266042530188696e+00 -1.1389909351810862e-02 0.0000000000000000e+00  1.1252824514553283e+00 -1.5267989796291893e-02 0.0000000000000000e+00  1.1479388047550940e+00 -1.7360079607501969e-02 0.0000000000000000e+00  1.1852976889130489e+00 1.2528907203592024e-03 0.0000000000000000e+00  1.4062396495620988e+00 3.2103301164871527e-09 0.0000000000000000e+00  1.4056946986172747e+00 4.1941860068563482e-04 0.0000000000000000e+00  1.4038513471947311e+00 6.5947162748199401e-04 0.0000000000000000e+00  1.4028671816360703e+00 -1.4520773217799919e-03 0.0000000000000000e+00  1.4076124304819229e+00 -1.5750528161137456e-03 0.0000000000000000e+00  1.3845306200530483e+00 -6.5576559333315959e-03 0.0000000000000000e+00  1.3343932324248393e+00 -1.1744610424605935e-02 0.0000000000000000e+00  1.2835923717187638e+00 -1.4745397560488212e-02 0.0000000000000000e+00  1.2614663724155990e+00 -2.0072585975168642e-03 0.0000000000000000e+00  1.4999818462350585e+00 -2.8951448250723036e-10 0.0000000000000000e+00  1.5012644796240096e+00 -1.5057925021035848e-04 0.0000000000000000e+00  1.4951903177537507e+00 -1.5404825786404807e-04 0.0000000000000000e+00  1.4976840610269779e+00 -7.2739455333092123e-05 0.0000000000000000e+00  1.4973473044792596e+00 2.1290814333984747e-05 0.0000000000000000e+00  1.4716348284458884e+00 1.8514383233596041e-04 0.0000000000000000e+00  1.4071492851410869e+00 1.0724539157673934e-04 0.0000000000000000e+00  1.3354261133097509e+00 1.3566327163775486e-04 0.0000000000000000e+00  1.2716854657139223e+00 1.2279718897928468e-04 0.0000000000000000e+00  1.4062363150906465e+00 -4.4532047917311661e-09 0.0000000000000000e+00  1.4056229025012412e+00 -6.2003903768243949e-04 0.0000000000000000e+00  1.4030256281154005e+00 -1.0084676534791732e-03 0.0000000000000000e+00  1.4031812775841184e+00 1.2891746691714868e-03 0.0000000000000000e+00  1.4071223196576501e+00 1.6635508839654264e-03 0.0000000000000000e+00  1.3825548563360213e+00 6.7842248674135647e-03 0.0000000000000000e+00  1.3355882244774746e+00 1.1805069672557747e-02 0.0000000000000000e+00  1.2829303766005167e+00 1.4814250620613225e-02 0.0000000000000000e+00  1.2603750739220849e+00 2.0772729698482536e-03 0.0000000000000000e+00  1.1249860198057491e+00 -1.1495278171358756e-08 0.0000000000000000e+00  1.1249790896113192e+00 2.4244052304396281e-04 0.0000000000000000e+00  1.1240842175760899e+00 -8.6735309813606954e-04 0.0000000000000000e+00  1.1220705646881874e+00 1.8901639186596762e-04 0.0000000000000000e+00  1.1244842550260259e+00 3.1180133168639971e-03 0.0000000000000000e+00  1.1270123596108836e+00 1.1656866454316536e-02 0.0000000000000000e+00  1.1233047835296124e+00 1.5398284908936003e-02 0.0000000000000000e+00  1.1480906751721487e+00 1.7568026143805853e-02 0.0000000000000000e+00  1.1841446554029724e+00 -8.8892821169046180e-04 0.0000000000000000e+00  6.5624157272056416e-01 -1.5921733160893061e-08 0.0000000000000000e+00  6.5633505117069391e-01 1.5222777425328725e-04 0.0000000000000000e+00  6.5684343246355636e-01 -3.1354997856704851e-04 0.0000000000000000e+00  6.5777344928728854e-01 2.7453115101914358e-05 0.0000000000000000e+00  6.6271396486287337e-01 1.7546296340825507e-03 0.0000000000000000e+00  6.9688002067061894e-01 6.0373773437128646e-03 0.0000000000000000e+00  7.6068560794744300e-01 7.6156581235061289e-03 0.0000000000000000e+00  8.1449551491869321e-01 5.7425377272776815e-03 0.0000000000000000e+00  8.2848852580281351e-01 -1.3711680383523661e-03 0.0000000000000000e+00  -7.0291063925180535e-06 -5.7795999497847785e-09 0.0000000000000000e+00  -7.2673474023719581e-06 3.7206120554210322e-09 0.0000000000000000e+00  -4.4943116975017195e-06 1.8268352209584815e-08 0.0000000000000000e+00  -6.1550583511625032e-06 -7.8063386907849228e-09 0.0000000000000000e+00  -2.3047491831782229e-06 3.5746748434862779e-08 0.0000000000000000e+00  -6.9510844100748822e-06 1.9383382531585362e-08 0.0000000000000000e+00  -7.6539948691840228e-06 -4.2918009292759389e-08 0.0000000000000000e+00  7.2918729731304752e-07 -3.1855332056470948e-08 0.0000000000000000e+00  -1.1196891869464209e-05 -9.6008644861147311e-08 0.0000000000000000e+00  </DataArray> 
</PointData> 
</Piece>
</UnstructuredGrid>
</VTKFile>