<?xml version="1.0"?>
<VTKFile type="UnstructuredGrid"  version="0.1"  >
<UnstructuredGrid>
<Piece  NumberOfPoints="81" NumberOfCells="128">
<Points>
<DataArray  type="Float64"  NumberOfComponents="3"  format="ascii">0 0 0  0.275 0 0  0.55 0 0  0.8250000000000001 0 0  1.1 0 0  1.375 0 0  1.65 0 0  1.925 0 0  2.2 0 0  0 0.05125 0  0.275 0.05125 0  0.55 0.05125 0  0.8250000000000001 0.05125 0  1.1 0.05125 0  1.375 0.05125 0  1.65 0.05125 0  1.925 0.05125 0  2.2 0.05125 0  0 0.1025 0  0.275 0.1025 0  0.55 0.1025 0  0.8250000000000001 0.1025 0  1.1 0.1025 0  1.375 0.1025 0  1.65 0.1025 0  1.925 0.1025 0  2.2 0.1025 0  0 0.15375 0  0.275 0.15375 0  0.55 0.15375 0  0.8250000000000001 0.15375 0  1.1 0.15375 0  1.375 0.15375 0  1.65 0.15375 0  1.925 0.15375 0  2.2 0.15375 0  0 0.205 0  0.275 0.205 0  0.55 0.205 0  0.8250000000000001 0.205 0  1.1 0.205 0  1.375 0.205 0  1.65 0.205 0  1.925 0.205 0  2.2 0.205 0  0 0.25625 0  0.275 0.25625 0  0.55 0.25625 0  0.8250000000000001 0.25625 0  1.1 0.25625 0  1.375 0.25625 0  1.65 0.25625 0  1.925 0.25625 0  2.2 0.25625 0  0 0.3075 0  0.275 0.3075 0  0.55 0.3075 0  0.8250000000000001 0.3075 0  1.1 0.3075 0  1.375 0.3075 0  1.65 0.3075 0  1.925 0.3075 0  2.2 0.3075 0  0 0.35875 0  0.275 0.35875 0  0.55 0.35875 0  0.8250000000000001 0.35875 0  1.1 0.35875 0  1.375 0.35875 0  1.65 0.35875 0  1.925 0.35875 0  2.2 0.35875 0  0 0.41 0  0.275 0.41 0  0.55 0.41 0  0.8250000000000001 0.41 0  1.1 0.41 0  1.375 0.41 0  1.65 0.41 0  1.925 0.41 0  2.2 0.41 0  </DataArray>
</Points>
<Cells>
<DataArray  type="UInt32"  Name="connectivity"  format="ascii">0 1 9  1 9 10  1 2 11  1 10 11  2 3 11  3 11 12  3 4 13  3 12 13  4 5 13  5 13 14  5 6 15  5 14 15  6 7 15  7 15 16  7 8 17  7 16 17  9 10 19  9 18 19  10 11 19  11 19 20  11 12 21  11 20 21  12 13 21  13 21 22  13 14 23  13 22 23  14 15 23  15 23 24  15 16 25  15 24 25  16 17 25  17 25 26  18 19 27  19 27 28  19 20 29  19 28 29  20 21 29  21 29 30  21 22 31  21 30 31  22 23 31  23 31 32  23 24 33  23 32 33  24 25 33  25 33 34  25 26 35  25 34 35  27 28 37  27 36 37  28 29 37  29 37 38  29 30 39  29 38 39  30 31 39  31 39 40  31 32 41  31 40 41  32 33 41  33 41 42  33 34 43  33 42 43  34 35 43  35 43 44  36 37 45  37 45 46  37 38 47  37 46 47  38 39 47  39 47 48  39 40 49  39 48 49  40 41 49  41 49 50  41 42 51  41 50 51  42 43 51  43 51 52  43 44 53  43 52 53  45 46 55  45 54 55  46 47 55  47 55 56  47 48 57  47 56 57  48 49 57  49 57 58  49 50 59  49 58 59  50 51 59  51 59 60  51 52 61  51 60 61  52 53 61  53 61 62  54 55 63  55 63 64  55 56 65  55 64 65  56 57 65  57 65 66  57 58 67  57 66 67  58 59 67  59 67 68  59 60 69  59 68 69  60 61 69  61 69 70  61 62 71  61 70 71  63 64 73  63 72 73  64 65 73  65 73 74  65 66 75  65 74 75  66 67 75  67 75 76  67 68 77  67 76 77  68 69 77  69 77 78  69 70 79  69 78 79  70 71 79  71 79 80  </DataArray>
<DataArray  type="UInt32"  Name="offsets"  format="ascii">3 6 9 12 15 18 21 24 27 30 33 36 39 42 45 48 51 54 57 60 63 66 69 72 75 78 81 84 87 90 93 96 99 102 105 108 111 114 117 120 123 126 129 132 135 138 141 144 147 150 153 156 159 162 165 168 171 174 177 180 183 186 189 192 195 198 201 204 207 210 213 216 219 222 225 228 231 234 237 240 243 246 249 252 255 258 261 264 267 270 273 276 279 282 285 288 291 294 297 300 303 306 309 312 315 318 321 324 327 330 333 336 339 342 345 348 351 354 357 360 363 366 369 372 375 378 381 384 </DataArray>
<DataArray  type="UInt8"  Name="types"  format="ascii">5 5 5 5 5 5 5 5 5 5 5 5 5 5 5 5 5 5 5 5 5 5 5 5 5 5 5 5 5 5 5 5 5 5 5 5 5 5 5 5 5 5 5 5 5 5 5 5 5 5 5 5 5 5 5 5 5 5 5 5 5 5 5 5 5 5 5 5 5 5 5 5 5 5 5 5 5 5 5 5 5 5 5 5 5 5 5 5 5 5 5 5 5 5 5 5 5 5 5 5 5 5 5 5 5 5 5 5 5 5 5 5 5 5 5 5 5 5 5 5 5 5 5 5 5 5 5 5 </DataArray>
</Cells>
<PointData  Vectors="f_16"> 
<DataArray  type="Float64"  Name="f_16"  NumberOfComponents="3" format="ascii">2.0487295377644204e-05 -4.2876410032602023e-09 0.0000000000000000e+00  -1.2016494183089586e-06 -1.0280849754362275e-10 0.0000000000000000e+00  1.0460646381308849e-06 -1.2979615436460789e-09 0.0000000000000000e+00  -8.2932606701482542e-06 1.5047072588566565e-09 0.0000000000000000e+00  -2.9456327398456473e-06 3.5846843041965410e-10 0.0000000000000000e+00  -4.7750040768151515e-06 -1.6046909203448468e-09 0.0000000000000000e+00  -5.1791308537799548e-06 -3.0647264327657025e-10 0.0000000000000000e+00  -5.9203197400328385e-06 1.5664264241804404e-09 0.0000000000000000e+00  -1.2387696340256427e-06 9.7394702431994381e-10 0.0000000000000000e+00  6.5624702033034898e-01 3.4761370683882758e-10 0.0000000000000000e+00  6.5720058659970626e-01 -1.2679239197653901e-04 0.0000000000000000e+00  6.5845824895157368e-01 1.3926270935822575e-04 0.0000000000000000e+00  6.5825447401824977e-01 -1.8608205466238508e-05 0.0000000000000000e+00  6.5900299948942198e-01 -4.1558792205538979e-05 0.0000000000000000e+00  6.5870902673432574e-01 5.4805884405929338e-05 0.0000000000000000e+00  6.5857378285055623e-01 7.9459929075836222e-06 0.0000000000000000e+00  6.5748487656443999e-01 -2.1891595305121063e-05 0.0000000000000000e+00  6.5822886070149578e-01 -3.5724704622520958e-04 0.0000000000000000e+00  1.1249840975848093e+00 1.3158634351940908e-09 0.0000000000000000e+00  1.1256573335535074e+00 -6.1727339712807977e-04 0.0000000000000000e+00  1.1238845038081668e+00 -1.3473585769280933e-04 0.0000000000000000e+00  1.1265512792432781e+00 -1.4497160897651890e-04 0.0000000000000000e+00  1.1256864458252003e+00 -2.7436084370038983e-05 0.0000000000000000e+00  1.1255045254444640e+00 2.2252979034903132e-04 0.0000000000000000e+00  1.1251580904732164e+00 2.2106990014993317e-04 0.0000000000000000e+00  1.1246319452559377e+00 1.0159910596774669e-04 0.0000000000000000e+00  1.1240599708284271e+00 -3.5854988559829467e-05 0.0000000000000000e+00  1.4062394776291820e+00 -4.3209044923597879e-11 0.0000000000000000e+00  1.4055859026769382e+00 -1.4134520494962199e-04 0.0000000000000000e+00  1.4066929371617620e+00 -1.3152357064810817e-04 0.0000000000000000e+00  1.4046495302322382e+00 -2.2844430226093610e-04 0.0000000000000000e+00  1.4074372900147634e+00 -2.1183645052089451e-04 0.0000000000000000e+00  1.4061136943627099e+00 1.7436622061845801e-04 0.0000000000000000e+00  1.4056346696976516e+00 2.3801797862325750e-04 0.0000000000000000e+00  1.4055723307859387e+00 1.2374007383958547e-04 0.0000000000000000e+00  1.4053410044774832e+00 4.7095781371811623e-05 0.0000000000000000e+00  1.4999818377108651e+00 9.4264530311210430e-10 0.0000000000000000e+00  1.5000999489617874e+00 -1.5540725916884205e-04 0.0000000000000000e+00  1.4986518154876289e+00 -1.8049314343212370e-04 0.0000000000000000e+00  1.4995541131331391e+00 -1.2316510664734542e-04 0.0000000000000000e+00  1.4975778109815550e+00 -5.7046074925964408e-05 0.0000000000000000e+00  1.4992148379234307e+00 9.9298709187497529e-05 0.0000000000000000e+00  1.4983495070274557e+00 3.0116266247647450e-04 0.0000000000000000e+00  1.4981556599291004e+00 4.7059581372659867e-04 0.0000000000000000e+00  1.4978408834004611e+00 3.4451839496087443e-04 0.0000000000000000e+00  1.4062361126723268e+00 6.0751674629882138e-10 0.0000000000000000e+00  1.4054951787147747e+00 -7.5258973017083386e-05 0.0000000000000000e+00  1.4057954615127308e+00 -2.4844879838926276e-04 0.0000000000000000e+00  1.4048872559981087e+00 -3.7783258833785236e-05 0.0000000000000000e+00  1.4067170237864814e+00 1.0865398394320386e-04 0.0000000000000000e+00  1.4037340325884657e+00 7.0191173736444545e-06 0.0000000000000000e+00  1.4066127045328849e+00 1.6615131321068410e-04 0.0000000000000000e+00  1.4052288101669959e+00 4.6031351475446611e-04 0.0000000000000000e+00  1.4049766893199374e+00 4.3285373268285267e-04 0.0000000000000000e+00  1.1249860111809515e+00 -4.0313413015250876e-10 0.0000000000000000e+00  1.1253858206654868e+00 1.8943462830565359e-04 0.0000000000000000e+00  1.1249005761868061e+00 -9.1239898474601751e-05 0.0000000000000000e+00  1.1245924234451861e+00 -5.5272920031488679e-05 0.0000000000000000e+00  1.1241590149080116e+00 2.5631319715682252e-05 0.0000000000000000e+00  1.1251201069029297e+00 -3.3216543863115379e-05 0.0000000000000000e+00  1.1227059442897060e+00 1.5851540432190131e-04 0.0000000000000000e+00  1.1252706957031289e+00 5.5513125506068855e-04 0.0000000000000000e+00  1.1242235420078961e+00 6.8998309118843888e-04 0.0000000000000000e+00  6.5624143747658292e-01 -9.4196764546549874e-10 0.0000000000000000e+00  6.5595508766054966e-01 2.1319941466571695e-05 0.0000000000000000e+00  6.5663062743772804e-01 -2.0911326876812199e-04 0.0000000000000000e+00  6.5626191880111506e-01 -3.2217420738891806e-05 0.0000000000000000e+00  6.5692803276640754e-01 5.5343155004286846e-06 0.0000000000000000e+00  6.5589487139989355e-01 2.5709786856533232e-05 0.0000000000000000e+00  6.5826710769141050e-01 2.1997192007860650e-04 0.0000000000000000e+00  6.5593179439710714e-01 2.2502431678197784e-04 0.0000000000000000e+00  6.6073082734241750e-01 8.7197675224716224e-04 0.0000000000000000e+00  -7.0309101232552664e-06 -1.0165747066806990e-09 0.0000000000000000e+00  -7.2270594773743988e-06 -3.9421523326303169e-10 0.0000000000000000e+00  -4.5999654381541212e-06 9.1963533560749423e-11 0.0000000000000000e+00  -6.2744687121026500e-06 1.8303125368058242e-10 0.0000000000000000e+00  -2.2800151428708679e-06 7.8524610355861831e-10 0.0000000000000000e+00  -6.9304626185209800e-06 -8.3812556494348286e-10 0.0000000000000000e+00  -7.0805713115224392e-06 -3.1859952760394505e-10 0.0000000000000000e+00  4.8067176872820067e-07 -7.9865870826252331e-10 0.0000000000000000e+00  -1.0288043244720656e-05 -5.8331464786843030e-09 0.0000000000000000e+00  </DataArray> 
</PointData> 
</Piece>
</UnstructuredGrid>
</VTKFile>