<?xml version="1.0"?>
<VTKFile type="UnstructuredGrid"  version="0.1"  >
<UnstructuredGrid>
<Piece  NumberOfPoints="81" NumberOfCells="128">
<Points>
<DataArray  type="Float64"  NumberOfComponents="3"  format="ascii">0 0 0  0.275 0 0  0.55 0 0  0.8250000000000001 0 0  1.1 0 0  1.375 0 0  1.65 0 0  1.925 0 0  2.2 0 0  0 0.05125 0  0.275 0.05125 0  0.55 0.05125 0  0.8250000000000001 0.05125 0  1.1 0.05125 0  1.375 0.05125 0  1.65 0.05125 0  1.925 0.05125 0  2.2 0.05125 0  0 0.1025 0  0.275 0.1025 0  0.55 0.1025 0  0.8250000000000001 0.1025 0  1.1 0.1025 0  1.375 0.1025 0  1.65 0.1025 0  1.925 0.1025 0  2.2 0.1025 0  0 0.15375 0  0.275 0.15375 0  0.55 0.15375 0  0.8250000000000001 0.15375 0  1.1 0.15375 0  1.375 0.15375 0  1.65 0.15375 0  1.925 0.15375 0  2.2 0.15375 0  0 0.205 0  0.275 0.205 0  0.55 0.205 0  0.8250000000000001 0.205 0  1.1 0.205 0  1.375 0.205 0  1.65 0.205 0  1.925 0.205 0  2.2 0.205 0  0 0.25625 0  0.275 0.25625 0  0.55 0.25625 0  0.8250000000000001 0.25625 0  1.1 0.25625 0  1.375 0.25625 0  1.65 0.25625 0  1.925 0.25625 0  2.2 0.25625 0  0 0.3075 0  0.275 0.3075 0  0.55 0.3075 0  0.8250000000000001 0.3075 0  1.1 0.3075 0  1.375 0.3075 0  1.65 0.3075 0  1.925 0.3075 0  2.2 0.3075 0  0 0.35875 0  0.275 0.35875 0  0.55 0.35875 0  0.8250000000000001 0.35875 0  1.1 0.35875 0  1.375 0.35875 0  1.65 0.35875 0  1.925 0.35875 0  2.2 0.35875 0  0 0.41 0  0.275 0.41 0  0.55 0.41 0  0.8250000000000001 0.41 0  1.1 0.41 0  1.375 0.41 0  1.65 0.41 0  1.925 0.41 0  2.2 0.41 0  </DataArray>
</Points>
<Cells>
<DataArray  type="UInt32"  Name="connectivity"  format="ascii">0 1 9  1 9 10  1 2 11  1 10 11  2 3 11  3 11 12  3 4 13  3 12 13  4 5 13  5 13 14  5 6 15  5 14 15  6 7 15  7 15 16  7 8 17  7 16 17  9 10 19  9 18 19  10 11 19  11 19 20  11 12 21  11 20 21  12 13 21  13 21 22  13 14 23  13 22 23  14 15 23  15 23 24  15 16 25  15 24 25  16 17 25  17 25 26  18 19 27  19 27 28  19 20 29  19 28 29  20 21 29  21 29 30  21 22 31  21 30 31  22 23 31  23 31 32  23 24 33  23 32 33  24 25 33  25 33 34  25 26 35  25 34 35  27 28 37  27 36 37  28 29 37  29 37 38  29 30 39  29 38 39  30 31 39  31 39 40  31 32 41  31 40 41  32 33 41  33 41 42  33 34 43  33 42 43  34 35 43  35 43 44  36 37 45  37 45 46  37 38 47  37 46 47  38 39 47  39 47 48  39 40 49  39 48 49  40 41 49  41 49 50  41 42 51  41 50 51  42 43 51  43 51 52  43 44 53  43 52 53  45 46 55  45 54 55  46 47 55  47 55 56  47 48 57  47 56 57  48 49 57  49 57 58  49 50 59  49 58 59  50 51 59  51 59 60  51 52 61  51 60 61  52 53 61  53 61 62  54 55 63  55 63 64  55 56 65  55 64 65  56 57 65  57 65 66  57 58 67  57 66 67  58 59 67  59 67 68  59 60 69  59 68 69  60 61 69  61 69 70  61 62 71  61 70 71  63 64 73  63 72 73  64 65 73  65 73 74  65 66 75  65 74 75  66 67 75  67 75 76  67 68 77  67 76 77  68 69 77  69 77 78  69 70 79  69 78 79  70 71 79  71 79 80  </DataArray>
<DataArray  type="UInt32"  Name="offsets"  format="ascii">3 6 9 12 15 18 21 24 27 30 33 36 39 42 45 48 51 54 57 60 63 66 69 72 75 78 81 84 87 90 93 96 99 102 105 108 111 114 117 120 123 126 129 132 135 138 141 144 147 150 153 156 159 162 165 168 171 174 177 180 183 186 189 192 195 198 201 204 207 210 213 216 219 222 225 228 231 234 237 240 243 246 249 252 255 258 261 264 267 270 273 276 279 282 285 288 291 294 297 300 303 306 309 312 315 318 321 324 327 330 333 336 339 342 345 348 351 354 357 360 363 366 369 372 375 378 381 384 </DataArray>
<DataArray  type="UInt8"  Name="types"  format="ascii">5 5 5 5 5 5 5 5 5 5 5 5 5 5 5 5 5 5 5 5 5 5 5 5 5 5 5 5 5 5 5 5 5 5 5 5 5 5 5 5 5 5 5 5 5 5 5 5 5 5 5 5 5 5 5 5 5 5 5 5 5 5 5 5 5 5 5 5 5 5 5 5 5 5 5 5 5 5 5 5 5 5 5 5 5 5 5 5 5 5 5 5 5 5 5 5 5 5 5 5 5 5 5 5 5 5 5 5 5 5 5 5 5 5 5 5 5 5 5 5 5 5 5 5 5 5 5 5 </DataArray>
</Cells>
<PointData  Vectors="f_16"> 
<DataArray  type="Float64"  Name="f_16"  NumberOfComponents="3" format="ascii">2.0490300427642984e-05 -4.1552146348916408e-09 0.0000000000000000e+00  -1.1990369175354594e-06 -1.2711061791376412e-10 0.0000000000000000e+00  1.0465115957913802e-06 -4.6734010330203965e-10 0.0000000000000000e+00  -8.2923847047444784e-06 2.3365260351511546e-10 0.0000000000000000e+00  -2.9358786662864280e-06 -2.0102132138170314e-09 0.0000000000000000e+00  -4.7683422691112794e-06 3.3009748808311972e-09 0.0000000000000000e+00  -5.2031853328867996e-06 7.1440966683753222e-09 0.0000000000000000e+00  -5.8940774368898368e-06 1.1057570173054078e-08 0.0000000000000000e+00  -1.1688670699935824e-06 8.0943438235837216e-09 0.0000000000000000e+00  6.5624702586124561e-01 -6.9181218310113217e-10 0.0000000000000000e+00  6.5700560722640133e-01 -1.1539464933954493e-04 0.0000000000000000e+00  6.5827820995872355e-01 1.5252806429351813e-04 0.0000000000000000e+00  6.5839692469517253e-01 -7.5845831433239493e-05 0.0000000000000000e+00  6.5861584234010084e-01 8.5668809294361625e-06 0.0000000000000000e+00  6.5875954083046950e-01 -3.5451192468742031e-05 0.0000000000000000e+00  6.5855721919167420e-01 -4.1094695208189109e-05 0.0000000000000000e+00  6.6130129786985048e-01 -6.7371911783692189e-04 0.0000000000000000e+00  6.7446212284811702e-01 -3.0736105376691675e-03 0.0000000000000000e+00  1.1249841067183475e+00 -1.0327905539998354e-09 0.0000000000000000e+00  1.1254609959866408e+00 -5.9694760065159369e-04 0.0000000000000000e+00  1.1239279977621157e+00 -2.0511930549334142e-04 0.0000000000000000e+00  1.1267187651256276e+00 -1.9005041466758229e-04 0.0000000000000000e+00  1.1257221702018458e+00 1.2174046382727660e-04 0.0000000000000000e+00  1.1252839967812032e+00 2.4333955503628418e-04 0.0000000000000000e+00  1.1250156814565893e+00 -8.3208204366940248e-05 0.0000000000000000e+00  1.1251831115007849e+00 -8.8707339676668282e-04 0.0000000000000000e+00  1.1250275195543302e+00 -4.2696597360655161e-03 0.0000000000000000e+00  1.4062394912726168e+00 -2.0093231973126701e-09 0.0000000000000000e+00  1.4054054695863731e+00 -1.5182586899642798e-04 0.0000000000000000e+00  1.4068633114751410e+00 -2.0109357948292300e-04 0.0000000000000000e+00  1.4051460094199790e+00 -1.7043136269591868e-04 0.0000000000000000e+00  1.4073231515454114e+00 3.7866120703257840e-05 0.0000000000000000e+00  1.4056032268579390e+00 9.6514054583514539e-05 0.0000000000000000e+00  1.4055003416973417e+00 3.6283921792965124e-05 0.0000000000000000e+00  1.4045314908408362e+00 -6.7988711678935510e-04 0.0000000000000000e+00  1.3950155483022475e+00 -2.9787594000067101e-03 0.0000000000000000e+00  1.4999818465048274e+00 7.6870041772179555e-10 0.0000000000000000e+00  1.4998626651972220e+00 -1.5530320042747637e-04 0.0000000000000000e+00  1.4989680825181104e+00 -1.7916560686371668e-04 0.0000000000000000e+00  1.5004524884177439e+00 -1.1580848138703368e-04 0.0000000000000000e+00  1.4972575061796731e+00 -4.4051837735587689e-05 0.0000000000000000e+00  1.4985072106301309e+00 1.1709052696187147e-04 0.0000000000000000e+00  1.4984714152248586e+00 2.9803214713158106e-04 0.0000000000000000e+00  1.4969248905261821e+00 4.4652403708543982e-04 0.0000000000000000e+00  1.4844434297861844e+00 2.4913786494211920e-04 0.0000000000000000e+00  1.4062361269112622e+00 2.7012499856785211e-09 0.0000000000000000e+00  1.4053163806628242e+00 -6.3740475567715317e-05 0.0000000000000000e+00  1.4059601302687772e+00 -1.8080931694956009e-04 0.0000000000000000e+00  1.4053944131278255e+00 -8.2846148331421255e-05 0.0000000000000000e+00  1.4066524101333377e+00 -1.1474680080032658e-04 0.0000000000000000e+00  1.4032962679284215e+00 1.1233521356636796e-04 0.0000000000000000e+00  1.4065579258178913e+00 3.8197681401265737e-04 0.0000000000000000e+00  1.4042709032401479e+00 1.1916875631649885e-03 0.0000000000000000e+00  1.3946066043937035e+00 3.2199248793669945e-03 0.0000000000000000e+00  1.1249860171506765e+00 2.4362103625424568e-09 0.0000000000000000e+00  1.1251906354964452e+00 1.6942067664497135e-04 0.0000000000000000e+00  1.1249546575562874e+00 -1.9225680312687891e-05 0.0000000000000000e+00  1.1247809846929442e+00 -4.1218540942212094e-06 0.0000000000000000e+00  1.1242584782648606e+00 -1.0903430768841423e-04 0.0000000000000000e+00  1.1250254582666857e+00 -3.6077735361848820e-05 0.0000000000000000e+00  1.1227350309447770e+00 4.6126049146815010e-04 0.0000000000000000e+00  1.1259915767572024e+00 1.5031669628832970e-03 0.0000000000000000e+00  1.1250061182471718e+00 4.7703199336960773e-03 0.0000000000000000e+00  6.5624144822516173e-01 3.1223312588529230e-10 0.0000000000000000e+00  6.5575981281744555e-01 1.0495641301059440e-05 0.0000000000000000e+00  6.5645079553058050e-01 -2.2301154387566150e-04 0.0000000000000000e+00  6.5643171458975258e-01 2.6253013750654526e-05 0.0000000000000000e+00  6.5660973683566926e-01 -4.0784508053441217e-05 0.0000000000000000e+00  6.5607707174564600e-01 1.1768536607316256e-04 0.0000000000000000e+00  6.5843580499898113e-01 2.6835292994476661e-04 0.0000000000000000e+00  6.5982955274070509e-01 8.5748492951972805e-04 0.0000000000000000e+00  6.7662533432150940e-01 3.5156223626176871e-03 0.0000000000000000e+00  -7.0269664565628755e-06 -1.2548133893242223e-09 0.0000000000000000e+00  -7.2252485732332159e-06 -6.7585987185027732e-10 0.0000000000000000e+00  -4.6033567803257691e-06 -1.2657830010084850e-09 0.0000000000000000e+00  -6.2794898106190454e-06 8.5325538673661454e-10 0.0000000000000000e+00  -2.2766777039086760e-06 3.6836129062153168e-09 0.0000000000000000e+00  -6.9278072663192720e-06 -5.7259106215302630e-09 0.0000000000000000e+00  -7.0675355591135503e-06 -1.5155319562250501e-09 0.0000000000000000e+00  5.3633225516158187e-07 6.4115892529331117e-09 0.0000000000000000e+00  -1.0201820805569972e-05 -2.6192229904389801e-08 0.0000000000000000e+00  </DataArray> 
</PointData> 
</Piece>
</UnstructuredGrid>
</VTKFile>