<?xml version="1.0"?>
<VTKFile type="UnstructuredGrid"  version="0.1"  >
<UnstructuredGrid>
<Piece  NumberOfPoints="81" NumberOfCells="128">
<Points>
<DataArray  type="Float64"  NumberOfComponents="3"  format="ascii">0 0 0  0.275 0 0  0.55 0 0  0.8250000000000001 0 0  1.1 0 0  1.375 0 0  1.65 0 0  1.925 0 0  2.2 0 0  0 0.05125 0  0.275 0.05125 0  0.55 0.05125 0  0.8250000000000001 0.05125 0  1.1 0.05125 0  1.375 0.05125 0  1.65 0.05125 0  1.925 0.05125 0  2.2 0.05125 0  0 0.1025 0  0.275 0.1025 0  0.55 0.1025 0  0.8250000000000001 0.1025 0  1.1 0.1025 0  1.375 0.1025 0  1.65 0.1025 0  1.925 0.1025 0  2.2 0.1025 0  0 0.15375 0  0.275 0.15375 0  0.55 0.15375 0  0.8250000000000001 0.15375 0  1.1 0.15375 0  1.375 0.15375 0  1.65 0.15375 0  1.925 0.15375 0  2.2 0.15375 0  0 0.205 0  0.275 0.205 0  0.55 0.205 0  0.8250000000000001 0.205 0  1.1 0.205 0  1.375 0.205 0  1.65 0.205 0  1.925 0.205 0  2.2 0.205 0  0 0.25625 0  0.275 0.25625 0  0.55 0.25625 0  0.8250000000000001 0.25625 0  1.1 0.25625 0  1.375 0.25625 0  1.65 0.25625 0  1.925 0.25625 0  2.2 0.25625 0  0 0.3075 0  0.275 0.3075 0  0.55 0.3075 0  0.8250000000000001 0.3075 0  1.1 0.3075 0  1.375 0.3075 0  1.65 0.3075 0  1.925 0.3075 0  2.2 0.3075 0  0 0.35875 0  0.275 0.35875 0  0.55 0.35875 0  0.8250000000000001 0.35875 0  1.1 0.35875 0  1.375 0.35875 0  1.65 0.35875 0  1.925 0.35875 0  2.2 0.35875 0  0 0.41 0  0.275 0.41 0  0.55 0.41 0  0.8250000000000001 0.41 0  1.1 0.41 0  1.375 0.41 0  1.65 0.41 0  1.925 0.41 0  2.2 0.41 0  </DataArray>
</Points>
<Cells>
<DataArray  type="UInt32"  Name="connectivity"  format="ascii">0 1 9  1 9 10  1 2 11  1 10 11  2 3 11  3 11 12  3 4 13  3 12 13  4 5 13  5 13 14  5 6 15  5 14 15  6 7 15  7 15 16  7 8 17  7 16 17  9 10 19  9 18 19  10 11 19  11 19 20  11 12 21  11 20 21  12 13 21  13 21 22  13 14 23  13 22 23  14 15 23  15 23 24  15 16 25  15 24 25  16 17 25  17 25 26  18 19 27  19 27 28  19 20 29  19 28 29  20 21 29  21 29 30  21 22 31  21 30 31  22 23 31  23 31 32  23 24 33  23 32 33  24 25 33  25 33 34  25 26 35  25 34 35  27 28 37  27 36 37  28 29 37  29 37 38  29 30 39  29 38 39  30 31 39  31 39 40  31 32 41  31 40 41  32 33 41  33 41 42  33 34 43  33 42 43  34 35 43  35 43 44  36 37 45  37 45 46  37 38 47  37 46 47  38 39 47  39 47 48  39 40 49  39 48 49  40 41 49  41 49 50  41 42 51  41 50 51  42 43 51  43 51 52  43 44 53  43 52 53  45 46 55  45 54 55  46 47 55  47 55 56  47 48 57  47 56 57  48 49 57  49 57 58  49 50 59  49 58 59  50 51 59  51 59 60  51 52 61  51 60 61  52 53 61  53 61 62  54 55 63  55 63 64  55 56 65  55 64 65  56 57 65  57 65 66  57 58 67  57 66 67  58 59 67  59 67 68  59 60 69  59 68 69  60 61 69  61 69 70  61 62 71  61 70 71  63 64 73  63 72 73  64 65 73  65 73 74  65 66 75  65 74 75  66 67 75  67 75 76  67 68 77  67 76 77  68 69 77  69 77 78  69 70 79  69 78 79  70 71 79  71 79 80  </DataArray>
<DataArray  type="UInt32"  Name="offsets"  format="ascii">3 6 9 12 15 18 21 24 27 30 33 36 39 42 45 48 51 54 57 60 63 66 69 72 75 78 81 84 87 90 93 96 99 102 105 108 111 114 117 120 123 126 129 132 135 138 141 144 147 150 153 156 159 162 165 168 171 174 177 180 183 186 189 192 195 198 201 204 207 210 213 216 219 222 225 228 231 234 237 240 243 246 249 252 255 258 261 264 267 270 273 276 279 282 285 288 291 294 297 300 303 306 309 312 315 318 321 324 327 330 333 336 339 342 345 348 351 354 357 360 363 366 369 372 375 378 381 384 </DataArray>
<DataArray  type="UInt8"  Name="types"  format="ascii">5 5 5 5 5 5 5 5 5 5 5 5 5 5 5 5 5 5 5 5 5 5 5 5 5 5 5 5 5 5 5 5 5 5 5 5 5 5 5 5 5 5 5 5 5 5 5 5 5 5 5 5 5 5 5 5 5 5 5 5 5 5 5 5 5 5 5 5 5 5 5 5 5 5 5 5 5 5 5 5 5 5 5 5 5 5 5 5 5 5 5 5 5 5 5 5 5 5 5 5 5 5 5 5 5 5 5 5 5 5 5 5 5 5 5 5 5 5 5 5 5 5 5 5 5 5 5 5 </DataArray>
</Cells>
<PointData  Vectors="f_16"> 
<DataArray  type="Float64"  Name="f_16"  NumberOfComponents="3" format="ascii">2.0573753887309449e-05 -9.1403645612184012e-09 0.0000000000000000e+00  -1.2043809640119422e-06 -1.4733705439177489e-10 0.0000000000000000e+00  1.0731809093007874e-06 1.3366979387275932e-09 0.0000000000000000e+00  -8.1880425657064936e-06 -5.7712809530536876e-10 0.0000000000000000e+00  -2.8650452003820222e-06 5.2489055644723190e-09 0.0000000000000000e+00  -4.8190899592524733e-06 3.7032481835076417e-08 0.0000000000000000e+00  -5.7910395132037705e-06 3.5935916286626379e-08 0.0000000000000000e+00  -6.3906195434999253e-06 3.3372542748926968e-08 0.0000000000000000e+00  -2.3759083202008977e-06 3.7204267386626802e-08 0.0000000000000000e+00  6.5624707370010416e-01 -1.1783124165898616e-08 0.0000000000000000e+00  6.5738893541372323e-01 -1.3569519267569814e-04 0.0000000000000000e+00  6.5769729977853986e-01 1.7549292390448937e-04 0.0000000000000000e+00  6.5832688483394697e-01 -1.7964554452775370e-04 0.0000000000000000e+00  6.6134322292046688e-01 -4.6219993075886999e-04 0.0000000000000000e+00  6.7816392422600646e-01 -3.4476899937954334e-03 0.0000000000000000e+00  7.1644404227411207e-01 -7.6084483697689380e-03 0.0000000000000000e+00  7.6951570130363567e-01 -6.3100144669415593e-03 0.0000000000000000e+00  8.0911322047000200e-01 -5.7518359349546203e-04 0.0000000000000000e+00  1.1249842449934240e+00 -6.9106729253459031e-09 0.0000000000000000e+00  1.1251095076818753e+00 -5.6876287533591085e-04 0.0000000000000000e+00  1.1245528554104582e+00 -4.0933148386521084e-04 0.0000000000000000e+00  1.1284603283980543e+00 -2.5363280413811726e-04 0.0000000000000000e+00  1.1264282722386547e+00 -9.7404447787742153e-04 0.0000000000000000e+00  1.1237207172793955e+00 -6.1021899703211577e-03 0.0000000000000000e+00  1.1217404472449810e+00 -1.3438219849884806e-02 0.0000000000000000e+00  1.1305750268705201e+00 -1.4414451338814928e-02 0.0000000000000000e+00  1.1639967014900743e+00 -1.0231202633354591e-02 0.0000000000000000e+00  1.4062397130659265e+00 -3.3360252989956260e-09 0.0000000000000000e+00  1.4056669785483211e+00 -4.6322257453530004e-04 0.0000000000000000e+00  1.4095943247482048e+00 -2.4449575913560904e-04 0.0000000000000000e+00  1.4058737766653397e+00 2.9213708070192120e-04 0.0000000000000000e+00  1.4046824033010579e+00 -3.3684078369910039e-04 0.0000000000000000e+00  1.3965973733739361e+00 -3.9305344578466107e-03 0.0000000000000000e+00  1.3700566256792635e+00 -9.4252938642161322e-03 0.0000000000000000e+00  1.3231636559937352e+00 -9.7904975765761813e-03 0.0000000000000000e+00  1.2772796813551652e+00 -1.2111481479357885e-02 0.0000000000000000e+00  1.4999820031449649e+00 -1.1006362574732341e-09 0.0000000000000000e+00  1.5000374878326861e+00 -1.4831259494557455e-04 0.0000000000000000e+00  1.5020929835316787e+00 -1.6418896178698687e-04 0.0000000000000000e+00  1.5005945732768227e+00 -8.4037862594772109e-05 0.0000000000000000e+00  1.4927749048962011e+00 1.3152397665889241e-05 0.0000000000000000e+00  1.4916842602190814e+00 1.6668740489405004e-04 0.0000000000000000e+00  1.4519516143821476e+00 1.7692936216811056e-04 0.0000000000000000e+00  1.3949629814971594e+00 1.3703557827501119e-04 0.0000000000000000e+00  1.3121200909126849e+00 4.6394852840722993e-05 0.0000000000000000e+00  1.4062363743690307e+00 3.3383268556976401e-09 0.0000000000000000e+00  1.4055758002443897e+00 2.5952794170802375e-04 0.0000000000000000e+00  1.4086898167906725e+00 -1.2259591421375654e-04 0.0000000000000000e+00  1.4062164346670283e+00 -4.8469097798387126e-04 0.0000000000000000e+00  1.4041922864124499e+00 3.6987709396104935e-04 0.0000000000000000e+00  1.3945008374246328e+00 4.1556990215300717e-03 0.0000000000000000e+00  1.3713593081221418e+00 9.6541655089984052e-03 0.0000000000000000e+00  1.3226995231541625e+00 9.8614427848999729e-03 0.0000000000000000e+00  1.2761747452695602e+00 1.1998879781195943e-02 0.0000000000000000e+00  1.1249861320532133e+00 7.8727639817874761e-09 0.0000000000000000e+00  1.1248121982846002e+00 1.4057842496565469e-04 0.0000000000000000e+00  1.1255970752801008e+00 2.0014007249070676e-04 0.0000000000000000e+00  1.1265900854411510e+00 9.3660251478292530e-05 0.0000000000000000e+00  1.1253066954614204e+00 1.0489528590429010e-03 0.0000000000000000e+00  1.1240147542987620e+00 6.3589395298466475e-03 0.0000000000000000e+00  1.1198287047640707e+00 1.3633366033440694e-02 0.0000000000000000e+00  1.1309523506869272e+00 1.4657337618211093e-02 0.0000000000000000e+00  1.1626958225149953e+00 1.0495971586531356e-02 0.0000000000000000e+00  6.5624160679924759e-01 1.0477226480231099e-08 0.0000000000000000e+00  6.5611143753648360e-01 2.9368126978064660e-05 0.0000000000000000e+00  6.5587486191636413e-01 -2.4345674488805504e-04 0.0000000000000000e+00  6.5646497303506779e-01 1.3652579035478926e-04 0.0000000000000000e+00  6.5960332931683507e-01 4.4934099881368015e-04 0.0000000000000000e+00  6.7608150554777813e-01 3.5348733636965425e-03 0.0000000000000000e+00  7.1668822535332133e-01 7.7624278942156162e-03 0.0000000000000000e+00  7.6759791706299518e-01 6.3800332030540417e-03 0.0000000000000000e+00  8.1027778759317892e-01 9.4691511080750249e-04 0.0000000000000000e+00  -6.9588142210357109e-06 1.6703780700943748e-09 0.0000000000000000e+00  -7.2429397988771842e-06 -3.5253563772495764e-09 0.0000000000000000e+00  -4.6171609237993317e-06 -3.0522669677657109e-09 0.0000000000000000e+00  -6.2383277689253615e-06 1.0732097845219290e-08 0.0000000000000000e+00  -2.2181350795916909e-06 4.0148217260575343e-08 0.0000000000000000e+00  -6.9054394313262936e-06 -1.3155911503682810e-08 0.0000000000000000e+00  -7.4100898011161784e-06 -2.6598267116722434e-08 0.0000000000000000e+00  7.3359095730614965e-07 2.2899213799517563e-08 0.0000000000000000e+00  -1.0598314106068494e-05 -1.2134734049422194e-07 0.0000000000000000e+00  </DataArray> 
</PointData> 
</Piece>
</UnstructuredGrid>
</VTKFile>